<?xml version="1.0" encoding="UTF-8"?>

<!-- generated on 2024-05-29 17:24:14 by Eclipse SUMO sumo Version 1.20.0
<configuration xmlns:xsi="http://www.w3.org/2001/XMLSchema-instance" xsi:noNamespaceSchemaLocation="http://sumo.dlr.de/xsd/sumoConfiguration.xsd">

    <input>
        <net-file value="test.net.xml"/>
        <route-files value="test.rou.xml"/>
    </input>

    <output>
        <emission-output value="my_emission_file.xml"/>
    </output>

    <time>
        <begin value="0"/>
        <end value="20000"/>
    </time>

</configuration>
-->

<emission-export xmlns:xsi="http://www.w3.org/2001/XMLSchema-instance" xsi:noNamespaceSchemaLocation="http://sumo.dlr.de/xsd/emission_file.xsd">
    <timestep time="0.00">
        <vehicle id="0" eclass="HBEFA3/PC_G_EU4" CO2="2624.72" CO="164.78" HC="0.81" NOx="1.20" PMx="0.07" fuel="837.22" electricity="0.00" noise="55.94" route="!0" type="DEFAULT_VEHTYPE" waiting="0.00" lane="305735033#0_0" pos="5.10" speed="0.00" angle="148.48" x="1922.24" y="2066.78"/>
    </timestep>
    <timestep time="1.00">
        <vehicle id="0" eclass="HBEFA3/PC_G_EU4" CO2="3987.62" CO="151.14" HC="0.78" NOx="1.78" PMx="0.09" fuel="1271.90" electricity="0.00" noise="67.94" route="!0" type="DEFAULT_VEHTYPE" waiting="0.00" lane="305735033#0_0" pos="7.61" speed="2.51" angle="148.48" x="1923.55" y="2064.64"/>
        <vehicle id="1" eclass="HBEFA3/PC_G_EU4" CO2="2624.72" CO="164.78" HC="0.81" NOx="1.20" PMx="0.07" fuel="837.22" electricity="0.00" noise="55.94" route="!1" type="DEFAULT_VEHTYPE" waiting="0.00" lane="-462111667#2_0" pos="5.10" speed="0.00" angle="141.40" x="1.93" y="1017.65"/>
    </timestep>
    <timestep time="2.00">
        <vehicle id="0" eclass="HBEFA3/PC_G_EU4" CO2="4803.58" CO="136.35" HC="0.73" NOx="2.11" PMx="0.10" fuel="1532.14" electricity="0.00" noise="67.27" route="!0" type="DEFAULT_VEHTYPE" waiting="0.00" lane="305735033#0_0" pos="12.27" speed="4.66" angle="148.48" x="1925.98" y="2060.67"/>
        <vehicle id="1" eclass="HBEFA3/PC_G_EU4" CO2="3467.50" CO="147.97" HC="0.76" NOx="1.55" PMx="0.08" fuel="1106.01" electricity="0.00" noise="65.65" route="!1" type="DEFAULT_VEHTYPE" waiting="0.00" lane="-462111667#2_0" pos="7.13" speed="2.03" angle="141.40" x="3.20" y="1016.07"/>
    </timestep>
    <timestep time="3.00">
        <vehicle id="0" eclass="HBEFA3/PC_G_EU4" CO2="4293.75" CO="107.67" HC="0.59" NOx="1.83" PMx="0.08" fuel="1369.53" electricity="0.00" noise="64.57" route="!0" type="DEFAULT_VEHTYPE" waiting="0.00" lane="305735033#0_0" pos="18.30" speed="6.04" angle="148.48" x="1929.14" y="2055.53"/>
        <vehicle id="1" eclass="HBEFA3/PC_G_EU4" CO2="4262.08" CO="134.70" HC="0.71" NOx="1.87" PMx="0.09" fuel="1359.43" electricity="0.00" noise="66.13" route="!1" type="DEFAULT_VEHTYPE" waiting="0.00" lane="-462111667#2_0" pos="11.11" speed="3.98" angle="141.40" x="5.68" y="1012.95"/>
        <vehicle id="2" eclass="HBEFA3/PC_G_EU4" CO2="2624.72" CO="164.78" HC="0.81" NOx="1.20" PMx="0.07" fuel="837.22" electricity="0.00" noise="55.94" route="!2" type="DEFAULT_VEHTYPE" waiting="0.00" lane="305735033#0_0" pos="5.10" speed="0.00" angle="148.48" x="1922.24" y="2066.78"/>
        <vehicle id="3" eclass="HBEFA3/PC_G_EU4" CO2="2624.72" CO="164.78" HC="0.81" NOx="1.20" PMx="0.07" fuel="837.22" electricity="0.00" noise="55.94" route="!3" type="DEFAULT_VEHTYPE" waiting="0.00" lane="462111666#0_0" pos="5.10" speed="0.00" angle="321.32" x="1779.22" y="4.98"/>
    </timestep>
    <timestep time="4.00">
        <vehicle id="0" eclass="HBEFA3/PC_G_EU4" CO2="7319.44" CO="142.23" HC="0.82" NOx="3.19" PMx="0.15" fuel="2334.55" electricity="0.00" noise="69.97" route="!0" type="DEFAULT_VEHTYPE" waiting="0.00" lane="305735033#0_0" pos="26.72" speed="8.42" angle="142.94" x="1934.17" y="2048.78"/>
        <vehicle id="1" eclass="HBEFA3/PC_G_EU4" CO2="6476.12" CO="146.31" HC="0.82" NOx="2.84" PMx="0.14" fuel="2065.58" electricity="0.00" noise="69.87" route="!1" type="DEFAULT_VEHTYPE" waiting="0.00" lane="-462111667#2_0" pos="17.66" speed="6.54" angle="141.40" x="9.77" y="1007.84"/>
        <vehicle id="2" eclass="HBEFA3/PC_G_EU4" CO2="3065.43" CO="147.53" HC="0.74" NOx="1.37" PMx="0.07" fuel="977.78" electricity="0.00" noise="63.33" route="!2" type="DEFAULT_VEHTYPE" waiting="0.00" lane="305735033#0_0" pos="6.65" speed="1.55" angle="148.48" x="1923.04" y="2065.46"/>
        <vehicle id="3" eclass="HBEFA3/PC_G_EU4" CO2="3518.08" CO="148.19" HC="0.76" NOx="1.57" PMx="0.08" fuel="1122.15" electricity="0.00" noise="65.90" route="!3" type="DEFAULT_VEHTYPE" waiting="0.00" lane="462111666#0_0" pos="7.18" speed="2.08" angle="321.32" x="1777.92" y="6.61"/>
        <vehicle id="4" eclass="HBEFA3/PC_G_EU4" CO2="2624.72" CO="164.78" HC="0.81" NOx="1.20" PMx="0.07" fuel="837.22" electricity="0.00" noise="55.94" route="!4" type="DEFAULT_VEHTYPE" waiting="0.00" lane="305735031#0_0" pos="5.10" speed="0.00" angle="276.77" x="1559.37" y="484.79"/>
    </timestep>
    <timestep time="5.00">
        <vehicle id="0" eclass="HBEFA3/PC_G_EU4" CO2="6903.26" CO="115.90" HC="0.69" NOx="2.95" PMx="0.14" fuel="2201.81" electricity="0.00" noise="68.38" route="!0" type="DEFAULT_VEHTYPE" waiting="0.00" lane="305735033#0_0" pos="36.94" speed="10.22" angle="142.94" x="1940.32" y="2040.63"/>
        <vehicle id="1" eclass="HBEFA3/PC_G_EU4" CO2="5812.22" CO="112.80" HC="0.65" NOx="2.49" PMx="0.11" fuel="1853.83" electricity="0.00" noise="67.13" route="!1" type="DEFAULT_VEHTYPE" waiting="0.00" lane="-462111667#2_0" pos="25.93" speed="8.27" angle="141.40" x="14.93" y="1001.38"/>
        <vehicle id="2" eclass="HBEFA3/PC_G_EU4" CO2="4109.35" CO="137.95" HC="0.72" NOx="1.81" PMx="0.09" fuel="1310.72" electricity="0.00" noise="66.13" route="!2" type="DEFAULT_VEHTYPE" waiting="0.00" lane="305735033#0_0" pos="10.19" speed="3.54" angle="148.48" x="1924.90" y="2062.44"/>
        <vehicle id="3" eclass="HBEFA3/PC_G_EU4" CO2="5322.22" CO="147.02" HC="0.80" NOx="2.35" PMx="0.11" fuel="1697.56" electricity="0.00" noise="69.14" route="!3" type="DEFAULT_VEHTYPE" waiting="0.00" lane="462111666#0_0" pos="11.84" speed="4.66" angle="321.32" x="1775.01" y="10.24"/>
        <vehicle id="4" eclass="HBEFA3/PC_G_EU4" CO2="3458.50" CO="147.94" HC="0.75" NOx="1.54" PMx="0.08" fuel="1103.14" electricity="0.00" noise="65.60" route="!4" type="DEFAULT_VEHTYPE" waiting="0.00" lane="305735031#0_0" pos="7.12" speed="2.02" angle="276.77" x="1557.36" y="485.03"/>
        <vehicle id="5" eclass="HBEFA3/PC_G_EU4" CO2="2624.72" CO="164.78" HC="0.81" NOx="1.20" PMx="0.07" fuel="837.22" electricity="0.00" noise="55.94" route="!5" type="DEFAULT_VEHTYPE" waiting="0.00" lane="-462111667#2_0" pos="5.10" speed="0.00" angle="141.40" x="1.93" y="1017.65"/>
    </timestep>
    <timestep time="6.00">
        <vehicle id="0" eclass="HBEFA3/PC_G_EU4" CO2="8147.88" CO="125.78" HC="0.77" NOx="3.49" PMx="0.17" fuel="2598.77" electricity="0.00" noise="69.69" route="!0" type="DEFAULT_VEHTYPE" waiting="0.00" lane="305735033#0_0" pos="49.04" speed="12.10" angle="142.94" x="1947.61" y="2030.97"/>
        <vehicle id="1" eclass="HBEFA3/PC_G_EU4" CO2="5699.93" CO="96.01" HC="0.57" NOx="2.40" PMx="0.11" fuel="1818.01" electricity="0.00" noise="66.61" route="!1" type="DEFAULT_VEHTYPE" waiting="0.00" lane="-462111667#2_0" pos="35.62" speed="9.69" angle="141.40" x="20.97" y="993.80"/>
        <vehicle id="2" eclass="HBEFA3/PC_G_EU4" CO2="5502.33" CO="135.84" HC="0.75" NOx="2.41" PMx="0.11" fuel="1755.00" electricity="0.00" noise="68.12" route="!2" type="DEFAULT_VEHTYPE" waiting="0.00" lane="305735033#0_0" pos="15.97" speed="5.78" angle="148.48" x="1927.92" y="2057.52"/>
        <vehicle id="3" eclass="HBEFA3/PC_G_EU4" CO2="4267.73" CO="107.30" HC="0.59" NOx="1.82" PMx="0.08" fuel="1361.23" electricity="0.00" noise="64.50" route="!3" type="DEFAULT_VEHTYPE" waiting="0.00" lane="462111666#0_0" pos="17.86" speed="6.02" angle="321.32" x="1771.25" y="14.95"/>
        <vehicle id="4" eclass="HBEFA3/PC_G_EU4" CO2="4082.31" CO="132.88" HC="0.70" NOx="1.79" PMx="0.08" fuel="1302.10" electricity="0.00" noise="65.54" route="!4" type="DEFAULT_VEHTYPE" waiting="0.00" lane="305735031#0_0" pos="10.97" speed="3.85" angle="276.77" x="1553.53" y="485.48"/>
        <vehicle id="5" eclass="HBEFA3/PC_G_EU4" CO2="3164.66" CO="147.38" HC="0.75" NOx="1.41" PMx="0.07" fuel="1009.42" electricity="0.00" noise="63.98" route="!5" type="DEFAULT_VEHTYPE" waiting="0.00" lane="-462111667#2_0" pos="6.78" speed="1.68" angle="141.40" x="2.98" y="1016.34"/>
        <vehicle id="6" eclass="HBEFA3/PC_G_EU4" CO2="2624.72" CO="164.78" HC="0.81" NOx="1.20" PMx="0.07" fuel="837.22" electricity="0.00" noise="55.94" route="!6" type="DEFAULT_VEHTYPE" waiting="0.00" lane="-305735108_0" pos="5.10" speed="0.00" angle="6.47" x="1351.93" y="476.26"/>
    </timestep>
    <timestep time="7.00">
        <vehicle id="0" eclass="HBEFA3/PC_G_EU4" CO2="12042.15" CO="189.51" HC="1.16" NOx="5.26" PMx="0.26" fuel="3840.83" electricity="0.00" noise="73.55" route="!0" type="DEFAULT_VEHTYPE" waiting="0.00" lane="305735033#0_0" pos="63.67" speed="14.63" angle="150.69" x="1954.89" y="2018.29"/>
        <vehicle id="1" eclass="HBEFA3/PC_G_EU4" CO2="7077.24" CO="109.62" HC="0.67" NOx="3.00" PMx="0.14" fuel="2257.30" electricity="0.00" noise="68.42" route="!1" type="DEFAULT_VEHTYPE" waiting="0.00" lane="-462111667#2_0" pos="46.97" speed="11.35" angle="141.40" x="28.06" y="984.93"/>
        <vehicle id="2" eclass="HBEFA3/PC_G_EU4" CO2="7517.95" CO="147.70" HC="0.85" NOx="3.29" PMx="0.16" fuel="2397.87" electricity="0.00" noise="70.46" route="!2" type="DEFAULT_VEHTYPE" waiting="0.00" lane="305735033#0_0" pos="24.26" speed="8.29" angle="142.94" x="1932.68" y="2050.74"/>
        <vehicle id="3" eclass="HBEFA3/PC_G_EU4" CO2="6797.18" CO="133.62" HC="0.77" NOx="2.95" PMx="0.14" fuel="2167.98" electricity="0.00" noise="69.08" route="!3" type="DEFAULT_VEHTYPE" waiting="0.00" lane="462111666#0_0" pos="26.08" speed="8.22" angle="321.32" x="1766.11" y="21.36"/>
        <vehicle id="4" eclass="HBEFA3/PC_G_EU4" CO2="5898.93" CO="138.75" HC="0.77" NOx="2.58" PMx="0.12" fuel="1881.49" electricity="0.00" noise="68.76" route="!4" type="DEFAULT_VEHTYPE" waiting="0.00" lane="305735031#0_0" pos="17.17" speed="6.19" angle="276.77" x="1547.38" y="486.21"/>
        <vehicle id="5" eclass="HBEFA3/PC_G_EU4" CO2="3411.85" CO="130.67" HC="0.67" NOx="1.49" PMx="0.07" fuel="1088.26" electricity="0.00" noise="63.27" route="!5" type="DEFAULT_VEHTYPE" waiting="0.00" lane="-462111667#2_0" pos="9.85" speed="3.07" angle="141.40" x="4.90" y="1013.94"/>
        <vehicle id="6" eclass="HBEFA3/PC_G_EU4" CO2="3579.96" CO="148.48" HC="0.76" NOx="1.60" PMx="0.08" fuel="1141.88" electricity="0.00" noise="66.19" route="!6" type="DEFAULT_VEHTYPE" waiting="0.00" lane="-305735108_0" pos="7.24" speed="2.14" angle="6.47" x="1352.18" y="478.39"/>
        <vehicle id="7" eclass="HBEFA3/PC_G_EU4" CO2="2624.72" CO="164.78" HC="0.81" NOx="1.20" PMx="0.07" fuel="837.22" electricity="0.00" noise="55.94" route="!7" type="DEFAULT_VEHTYPE" waiting="0.00" lane="305735033#0_0" pos="5.10" speed="0.00" angle="148.48" x="1922.24" y="2066.78"/>
    </timestep>
    <timestep time="8.00">
        <vehicle id="0" eclass="HBEFA3/PC_G_EU4" CO2="0.00" CO="0.00" HC="0.00" NOx="0.00" PMx="0.00" fuel="0.00" electricity="0.00" noise="62.96" route="!0" type="DEFAULT_VEHTYPE" waiting="0.00" lane="305735033#0_0" pos="77.47" speed="13.80" angle="150.69" x="1961.64" y="2006.25"/>
        <vehicle id="1" eclass="HBEFA3/PC_G_EU4" CO2="8248.90" CO="120.70" HC="0.75" NOx="3.51" PMx="0.17" fuel="2630.99" electricity="0.00" noise="69.68" route="!1" type="DEFAULT_VEHTYPE" waiting="0.00" lane="-462111667#2_0" pos="60.08" speed="13.10" angle="141.40" x="36.23" y="974.69"/>
        <vehicle id="2" eclass="HBEFA3/PC_G_EU4" CO2="7493.07" CO="127.34" HC="0.76" NOx="3.23" PMx="0.15" fuel="2389.93" electricity="0.00" noise="69.26" route="!2" type="DEFAULT_VEHTYPE" waiting="0.00" lane="305735033#0_0" pos="34.55" speed="10.29" angle="142.94" x="1938.88" y="2042.53"/>
        <vehicle id="3" eclass="HBEFA3/PC_G_EU4" CO2="8332.35" CO="142.85" HC="0.85" NOx="3.62" PMx="0.17" fuel="2657.61" electricity="0.00" noise="70.47" route="!3" type="DEFAULT_VEHTYPE" waiting="0.00" lane="462111666#0_0" pos="36.57" speed="10.49" angle="321.32" x="1759.55" y="29.55"/>
        <vehicle id="4" eclass="HBEFA3/PC_G_EU4" CO2="7807.42" CO="149.21" HC="0.87" NOx="3.42" PMx="0.16" fuel="2490.19" electricity="0.00" noise="70.68" route="!4" type="DEFAULT_VEHTYPE" waiting="0.00" lane="305735031#0_0" pos="25.88" speed="8.71" angle="276.77" x="1538.73" y="487.24"/>
        <vehicle id="5" eclass="HBEFA3/PC_G_EU4" CO2="5027.69" CO="133.80" HC="0.73" NOx="2.20" PMx="0.10" fuel="1603.62" electricity="0.00" noise="67.36" route="!5" type="DEFAULT_VEHTYPE" waiting="0.00" lane="-462111667#2_0" pos="15.04" speed="5.19" angle="141.40" x="8.13" y="1009.89"/>
        <vehicle id="6" eclass="HBEFA3/PC_G_EU4" CO2="3565.32" CO="126.65" HC="0.66" NOx="1.55" PMx="0.07" fuel="1137.21" electricity="0.00" noise="63.55" route="!6" type="DEFAULT_VEHTYPE" waiting="0.00" lane="-305735108_0" pos="10.79" speed="3.55" angle="6.47" x="1352.58" y="481.91"/>
        <vehicle id="7" eclass="HBEFA3/PC_G_EU4" CO2="2926.91" CO="148.24" HC="0.74" NOx="1.31" PMx="0.07" fuel="933.60" electricity="0.00" noise="62.30" route="!7" type="DEFAULT_VEHTYPE" waiting="0.00" lane="305735033#0_0" pos="6.43" speed="1.33" angle="148.48" x="1922.93" y="2065.65"/>
        <vehicle id="8" eclass="HBEFA3/PC_G_EU4" CO2="2624.72" CO="164.78" HC="0.81" NOx="1.20" PMx="0.07" fuel="837.22" electricity="0.00" noise="55.94" route="!8" type="DEFAULT_VEHTYPE" waiting="0.00" lane="-462111667#2_0" pos="5.10" speed="0.00" angle="141.40" x="1.93" y="1017.65"/>
    </timestep>
    <timestep time="9.00">
        <vehicle id="0" eclass="HBEFA3/PC_G_EU4" CO2="3354.41" CO="13.80" HC="0.14" NOx="1.18" PMx="0.04" fuel="1069.91" electricity="0.00" noise="65.36" route="!0" type="DEFAULT_VEHTYPE" waiting="0.00" lane="305735033#0_0" pos="91.54" speed="14.07" angle="150.69" x="1968.53" y="1993.98"/>
        <vehicle id="1" eclass="HBEFA3/PC_G_EU4" CO2="7572.95" CO="98.33" HC="0.63" NOx="3.16" PMx="0.15" fuel="2415.40" electricity="0.00" noise="69.02" route="!1" type="DEFAULT_VEHTYPE" waiting="0.00" lane="-462111667#2_0" pos="74.55" speed="14.48" angle="141.40" x="45.27" y="963.38"/>
        <vehicle id="2" eclass="HBEFA3/PC_G_EU4" CO2="8643.82" CO="134.52" HC="0.82" NOx="3.72" PMx="0.18" fuel="2756.95" electricity="0.00" noise="70.28" route="!2" type="DEFAULT_VEHTYPE" waiting="0.00" lane="305735033#0_0" pos="46.85" speed="12.30" angle="142.94" x="1946.29" y="2032.72"/>
        <vehicle id="3" eclass="HBEFA3/PC_G_EU4" CO2="7412.24" CO="110.37" HC="0.68" NOx="3.14" PMx="0.15" fuel="2364.14" electricity="0.00" noise="68.77" route="!3" type="DEFAULT_VEHTYPE" waiting="0.00" lane="462111666#0_0" pos="48.71" speed="12.14" angle="321.32" x="1751.97" y="39.03"/>
        <vehicle id="4" eclass="HBEFA3/PC_G_EU4" CO2="6691.21" CO="109.90" HC="0.66" NOx="2.85" PMx="0.13" fuel="2134.18" electricity="0.00" noise="68.03" route="!4" type="DEFAULT_VEHTYPE" waiting="0.00" lane="305735031#0_0" pos="36.27" speed="10.40" angle="276.10" x="1528.42" y="488.40"/>
        <vehicle id="5" eclass="HBEFA3/PC_G_EU4" CO2="5889.59" CO="126.31" HC="0.71" NOx="2.55" PMx="0.12" fuel="1878.51" electricity="0.00" noise="67.85" route="!5" type="DEFAULT_VEHTYPE" waiting="0.00" lane="-462111667#2_0" pos="22.24" speed="7.21" angle="141.40" x="12.63" y="1004.26"/>
        <vehicle id="6" eclass="HBEFA3/PC_G_EU4" CO2="4204.17" CO="118.20" HC="0.64" NOx="1.81" PMx="0.08" fuel="1340.96" electricity="0.00" noise="64.80" route="!6" type="DEFAULT_VEHTYPE" waiting="0.00" lane="-305735108_0" pos="15.88" speed="5.09" angle="6.47" x="1353.15" y="486.97"/>
        <vehicle id="7" eclass="HBEFA3/PC_G_EU4" CO2="3557.23" CO="135.46" HC="0.70" NOx="1.56" PMx="0.08" fuel="1134.63" electricity="0.00" noise="64.23" route="!7" type="DEFAULT_VEHTYPE" waiting="0.00" lane="305735033#0_0" pos="9.38" speed="2.95" angle="148.48" x="1924.47" y="2063.13"/>
        <vehicle id="8" eclass="HBEFA3/PC_G_EU4" CO2="3223.60" CO="147.38" HC="0.75" NOx="1.44" PMx="0.07" fuel="1028.22" electricity="0.00" noise="64.33" route="!8" type="DEFAULT_VEHTYPE" waiting="0.00" lane="-462111667#2_0" pos="6.85" speed="1.75" angle="141.40" x="3.03" y="1016.28"/>
        <vehicle id="9" eclass="HBEFA3/PC_G_EU4" CO2="2624.72" CO="164.78" HC="0.81" NOx="1.20" PMx="0.07" fuel="837.22" electricity="0.00" noise="55.94" route="!9" type="DEFAULT_VEHTYPE" waiting="0.00" lane="305735193#0_0" pos="5.10" speed="0.00" angle="288.37" x="1567.56" y="505.46"/>
    </timestep>
    <timestep time="10.00">
        <vehicle id="0" eclass="HBEFA3/PC_G_EU4" CO2="3844.76" CO="21.67" HC="0.19" NOx="1.40" PMx="0.05" fuel="1226.30" electricity="0.00" noise="65.91" route="!0" type="DEFAULT_VEHTYPE" waiting="0.00" lane="305735033#0_0" pos="106.00" speed="14.46" angle="150.69" x="1975.61" y="1981.37"/>
        <vehicle id="1" eclass="HBEFA3/PC_G_EU4" CO2="8502.72" CO="110.33" HC="0.71" NOx="3.56" PMx="0.17" fuel="2711.94" electricity="0.00" noise="70.02" route="!1" type="DEFAULT_VEHTYPE" waiting="0.00" lane="-462111667#2_0" pos="90.47" speed="15.91" angle="141.40" x="55.19" y="950.94"/>
        <vehicle id="2" eclass="HBEFA3/PC_G_EU4" CO2="6128.01" CO="75.10" HC="0.49" NOx="2.50" PMx="0.11" fuel="1954.54" electricity="0.00" noise="67.45" route="!2" type="DEFAULT_VEHTYPE" waiting="0.00" lane="305735033#0_0" pos="60.24" speed="13.40" angle="150.69" x="1953.21" y="2021.27"/>
        <vehicle id="3" eclass="HBEFA3/PC_G_EU4" CO2="9874.54" CO="147.47" HC="0.91" NOx="4.25" PMx="0.21" fuel="3149.49" electricity="0.00" noise="71.34" route="!3" type="DEFAULT_VEHTYPE" waiting="0.00" lane="462111666#0_0" pos="62.88" speed="14.17" angle="319.38" x="1742.95" y="49.95"/>
        <vehicle id="4" eclass="HBEFA3/PC_G_EU4" CO2="10045.33" CO="160.15" HC="0.97" NOx="4.37" PMx="0.21" fuel="3203.96" electricity="0.00" noise="71.89" route="!4" type="DEFAULT_VEHTYPE" waiting="0.00" lane="305735031#0_0" pos="49.02" speed="12.74" angle="247.98" x="1516.60" y="483.63"/>
        <vehicle id="5" eclass="HBEFA3/PC_G_EU4" CO2="6200.06" CO="113.51" HC="0.66" NOx="2.65" PMx="0.12" fuel="1977.53" electricity="0.00" noise="67.60" route="!5" type="DEFAULT_VEHTYPE" waiting="0.00" lane="-462111667#2_0" pos="31.21" speed="8.96" angle="141.40" x="18.22" y="997.25"/>
        <vehicle id="6" eclass="HBEFA3/PC_G_EU4" CO2="4951.26" CO="112.86" HC="0.63" NOx="2.12" PMx="0.10" fuel="1579.23" electricity="0.00" noise="65.94" route="!6" type="DEFAULT_VEHTYPE" waiting="0.00" lane="-305735108_0" pos="22.59" speed="6.71" angle="6.47" x="1353.91" y="493.64"/>
        <vehicle id="7" eclass="HBEFA3/PC_G_EU4" CO2="3760.37" CO="119.52" HC="0.63" NOx="1.62" PMx="0.07" fuel="1199.41" electricity="0.00" noise="63.76" route="!7" type="DEFAULT_VEHTYPE" waiting="0.00" lane="305735033#0_0" pos="13.71" speed="4.33" angle="148.48" x="1926.73" y="2059.45"/>
        <vehicle id="8" eclass="HBEFA3/PC_G_EU4" CO2="3671.27" CO="131.80" HC="0.69" NOx="1.61" PMx="0.08" fuel="1171.00" electricity="0.00" noise="64.29" route="!8" type="DEFAULT_VEHTYPE" waiting="0.00" lane="-462111667#2_0" pos="10.20" speed="3.35" angle="141.40" x="5.12" y="1013.67"/>
        <vehicle id="9" eclass="HBEFA3/PC_G_EU4" CO2="3876.66" CO="150.31" HC="0.78" NOx="1.73" PMx="0.09" fuel="1236.51" electricity="0.00" noise="67.49" route="!9" type="DEFAULT_VEHTYPE" waiting="0.00" lane="305735193#0_0" pos="7.51" speed="2.41" angle="288.37" x="1565.27" y="506.22"/>
    </timestep>
    <timestep time="11.00">
        <vehicle id="0" eclass="HBEFA3/PC_G_EU4" CO2="0.00" CO="0.00" HC="0.00" NOx="0.00" PMx="0.00" fuel="0.00" electricity="0.00" noise="62.89" route="!0" type="DEFAULT_VEHTYPE" waiting="0.00" lane="305735033#0_0" pos="119.66" speed="13.66" angle="150.69" x="1982.30" y="1969.46"/>
        <vehicle id="1" eclass="HBEFA3/PC_G_EU4" CO2="9154.49" CO="118.37" HC="0.76" NOx="3.84" PMx="0.19" fuel="2919.82" electricity="0.00" noise="70.74" route="!1" type="DEFAULT_VEHTYPE" waiting="0.00" lane="-462111667#2_0" pos="107.80" speed="17.33" angle="141.40" x="66.01" y="937.40"/>
        <vehicle id="11" eclass="HBEFA3/PC_G_EU4" CO2="2624.72" CO="164.78" HC="0.81" NOx="1.20" PMx="0.07" fuel="837.22" electricity="0.00" noise="55.94" route="!11" type="DEFAULT_VEHTYPE" waiting="0.00" lane="-462111667#2_0" pos="5.10" speed="0.00" angle="141.40" x="1.93" y="1017.65"/>
        <vehicle id="2" eclass="HBEFA3/PC_G_EU4" CO2="1937.14" CO="0.00" HC="0.00" NOx="0.53" PMx="0.00" fuel="617.87" electricity="0.00" noise="63.91" route="!2" type="DEFAULT_VEHTYPE" waiting="0.00" lane="305735033#0_0" pos="73.54" speed="13.29" angle="150.69" x="1959.72" y="2009.68"/>
        <vehicle id="3" eclass="HBEFA3/PC_G_EU4" CO2="8690.39" CO="115.23" HC="0.73" NOx="3.66" PMx="0.18" fuel="2771.80" electricity="0.00" noise="70.16" route="!3" type="DEFAULT_VEHTYPE" waiting="0.00" lane="462111666#0_0" pos="78.56" speed="15.68" angle="319.38" x="1732.74" y="61.85"/>
        <vehicle id="4" eclass="HBEFA3/PC_G_EU4" CO2="4698.40" CO="45.45" HC="0.32" NOx="1.83" PMx="0.07" fuel="1498.57" electricity="0.00" noise="66.12" route="!4" type="DEFAULT_VEHTYPE" waiting="0.00" lane="305735031#0_0" pos="62.45" speed="13.43" angle="247.98" x="1504.15" y="478.59"/>
        <vehicle id="5" eclass="HBEFA3/PC_G_EU4" CO2="9866.21" CO="165.65" HC="0.99" NOx="4.32" PMx="0.21" fuel="3146.83" electricity="0.00" noise="72.19" route="!5" type="DEFAULT_VEHTYPE" waiting="0.00" lane="-462111667#2_0" pos="42.73" speed="11.53" angle="141.40" x="25.41" y="988.24"/>
        <vehicle id="6" eclass="HBEFA3/PC_G_EU4" CO2="6479.69" CO="122.44" HC="0.71" NOx="2.79" PMx="0.13" fuel="2066.72" electricity="0.00" noise="68.23" route="!6" type="DEFAULT_VEHTYPE" waiting="0.00" lane="-305735108_0" pos="31.25" speed="8.66" angle="18.60" x="1356.47" y="501.88"/>
        <vehicle id="7" eclass="HBEFA3/PC_G_EU4" CO2="5421.73" CO="127.24" HC="0.71" NOx="2.35" PMx="0.11" fuel="1729.29" electricity="0.00" noise="67.37" route="!7" type="DEFAULT_VEHTYPE" waiting="0.00" lane="305735033#0_0" pos="20.03" speed="6.33" angle="147.19" x="1930.14" y="2054.11"/>
        <vehicle id="8" eclass="HBEFA3/PC_G_EU4" CO2="4421.21" CO="123.05" HC="0.66" NOx="1.91" PMx="0.09" fuel="1410.18" electricity="0.00" noise="65.53" route="!8" type="DEFAULT_VEHTYPE" waiting="0.00" lane="-462111667#2_0" pos="15.26" speed="5.06" angle="141.40" x="8.27" y="1009.71"/>
        <vehicle id="9" eclass="HBEFA3/PC_G_EU4" CO2="3709.70" CO="124.96" HC="0.66" NOx="1.61" PMx="0.07" fuel="1183.25" electricity="0.00" noise="63.91" route="!9" type="DEFAULT_VEHTYPE" waiting="0.00" lane="305735193#0_0" pos="11.39" speed="3.87" angle="288.37" x="1561.60" y="507.44"/>
    </timestep>
    <timestep time="12.00">
        <vehicle id="0" eclass="HBEFA3/PC_G_EU4" CO2="1625.78" CO="0.00" HC="0.00" NOx="0.38" PMx="0.00" fuel="518.57" electricity="0.00" noise="63.84" route="!0" type="DEFAULT_VEHTYPE" waiting="0.00" lane="305735033#0_0" pos="133.13" speed="13.47" angle="150.69" x="1988.89" y="1957.71"/>
        <vehicle id="1" eclass="HBEFA3/PC_G_EU4" CO2="16493.56" CO="264.02" HC="1.61" NOx="7.24" PMx="0.38" fuel="5260.60" electricity="0.00" noise="76.32" route="!1" type="DEFAULT_VEHTYPE" waiting="0.00" lane="-462111667#2_0" pos="127.70" speed="19.90" angle="141.40" x="78.43" y="921.84"/>
        <vehicle id="10" eclass="HBEFA3/PC_G_EU4" CO2="2624.72" CO="164.78" HC="0.81" NOx="1.20" PMx="0.07" fuel="837.22" electricity="0.00" noise="55.94" route="!10" type="DEFAULT_VEHTYPE" waiting="0.00" lane="305735193#0_0" pos="5.10" speed="0.00" angle="288.37" x="1567.56" y="505.46"/>
        <vehicle id="11" eclass="HBEFA3/PC_G_EU4" CO2="3667.06" CO="148.95" HC="0.76" NOx="1.63" PMx="0.08" fuel="1169.66" electricity="0.00" noise="66.59" route="!11" type="DEFAULT_VEHTYPE" waiting="0.00" lane="-462111667#2_0" pos="7.33" speed="2.23" angle="141.40" x="3.32" y="1015.91"/>
        <vehicle id="12" eclass="HBEFA3/PC_G_EU4" CO2="2624.72" CO="164.78" HC="0.81" NOx="1.20" PMx="0.07" fuel="837.22" electricity="0.00" noise="55.94" route="!12" type="DEFAULT_VEHTYPE" waiting="0.00" lane="462111666#0_0" pos="5.10" speed="0.00" angle="321.32" x="1779.22" y="4.98"/>
        <vehicle id="2" eclass="HBEFA3/PC_G_EU4" CO2="4196.78" CO="32.71" HC="0.25" NOx="1.58" PMx="0.06" fuel="1338.58" electricity="0.00" noise="65.86" route="!2" type="DEFAULT_VEHTYPE" waiting="0.00" lane="305735033#0_0" pos="87.35" speed="13.81" angle="150.69" x="1966.48" y="1997.63"/>
        <vehicle id="3" eclass="HBEFA3/PC_G_EU4" CO2="9712.66" CO="130.17" HC="0.83" NOx="4.10" PMx="0.20" fuel="3097.85" electricity="0.00" noise="71.15" route="!3" type="DEFAULT_VEHTYPE" waiting="0.00" lane="462111666#0_0" pos="95.79" speed="17.24" angle="319.38" x="1721.52" y="74.93"/>
        <vehicle id="4" eclass="HBEFA3/PC_G_EU4" CO2="1967.28" CO="0.00" HC="0.00" NOx="0.54" PMx="0.00" fuel="627.49" electricity="0.00" noise="63.96" route="!4" type="DEFAULT_VEHTYPE" waiting="0.00" lane="305735031#0_0" pos="75.78" speed="13.34" angle="247.98" x="1491.79" y="473.59"/>
        <vehicle id="5" eclass="HBEFA3/PC_G_EU4" CO2="9863.67" CO="150.41" HC="0.92" NOx="4.26" PMx="0.21" fuel="3146.02" electricity="0.00" noise="71.42" route="!5" type="DEFAULT_VEHTYPE" waiting="0.00" lane="-462111667#2_0" pos="56.38" speed="13.65" angle="141.40" x="33.93" y="977.58"/>
        <vehicle id="6" eclass="HBEFA3/PC_G_EU4" CO2="2863.96" CO="44.60" HC="0.27" NOx="1.08" PMx="0.03" fuel="913.49" electricity="0.00" noise="62.13" route="!6" type="DEFAULT_VEHTYPE" waiting="0.00" lane="-305735108_0" pos="40.23" speed="8.99" angle="18.60" x="1359.34" y="510.40"/>
        <vehicle id="7" eclass="HBEFA3/PC_G_EU4" CO2="5521.28" CO="109.98" HC="0.63" NOx="2.36" PMx="0.11" fuel="1761.04" electricity="0.00" noise="66.66" route="!7" type="DEFAULT_VEHTYPE" waiting="0.00" lane="305735033#0_0" pos="28.01" speed="7.98" angle="142.94" x="1934.94" y="2047.75"/>
        <vehicle id="8" eclass="HBEFA3/PC_G_EU4" CO2="6057.41" CO="130.14" HC="0.74" NOx="2.63" PMx="0.12" fuel="1932.04" electricity="0.00" noise="68.25" route="!8" type="DEFAULT_VEHTYPE" waiting="0.00" lane="-462111667#2_0" pos="22.44" speed="7.17" angle="141.40" x="12.75" y="1004.11"/>
        <vehicle id="9" eclass="HBEFA3/PC_G_EU4" CO2="6110.54" CO="141.76" HC="0.79" NOx="2.68" PMx="0.13" fuel="1948.99" electricity="0.00" noise="69.20" route="!9" type="DEFAULT_VEHTYPE" waiting="0.00" lane="305735193#0_0" pos="17.69" speed="6.30" angle="288.37" x="1555.62" y="509.43"/>
    </timestep>
    <timestep time="13.00">
        <vehicle id="0" eclass="HBEFA3/PC_G_EU4" CO2="6522.64" CO="76.26" HC="0.50" NOx="2.66" PMx="0.12" fuel="2080.41" electricity="0.00" noise="68.08" route="!0" type="DEFAULT_VEHTYPE" waiting="0.00" lane="305735033#0_0" pos="147.69" speed="14.56" angle="150.69" x="1996.02" y="1945.02"/>
        <vehicle id="1" eclass="HBEFA3/PC_G_EU4" CO2="5553.21" CO="38.40" HC="0.31" NOx="2.06" PMx="0.10" fuel="1771.21" electricity="0.00" noise="69.63" route="!1" type="DEFAULT_VEHTYPE" waiting="0.00" lane="-462111667#2_0" pos="148.04" speed="20.34" angle="138.13" x="91.56" y="906.32"/>
        <vehicle id="10" eclass="HBEFA3/PC_G_EU4" CO2="3253.76" CO="147.41" HC="0.75" NOx="1.45" PMx="0.07" fuel="1037.84" electricity="0.00" noise="64.51" route="!10" type="DEFAULT_VEHTYPE" waiting="0.00" lane="305735193#0_0" pos="6.89" speed="1.79" angle="288.37" x="1565.86" y="506.02"/>
        <vehicle id="11" eclass="HBEFA3/PC_G_EU4" CO2="3967.97" CO="129.55" HC="0.68" NOx="1.73" PMx="0.08" fuel="1265.63" electricity="0.00" noise="64.96" route="!11" type="DEFAULT_VEHTYPE" waiting="0.00" lane="-462111667#2_0" pos="11.25" speed="3.92" angle="141.40" x="5.77" y="1012.85"/>
        <vehicle id="12" eclass="HBEFA3/PC_G_EU4" CO2="3032.05" CO="147.64" HC="0.74" NOx="1.36" PMx="0.07" fuel="967.13" electricity="0.00" noise="63.10" route="!12" type="DEFAULT_VEHTYPE" waiting="0.00" lane="462111666#0_0" pos="6.60" speed="1.50" angle="321.32" x="1778.29" y="6.15"/>
        <vehicle id="13" eclass="HBEFA3/PC_G_EU4" CO2="2624.72" CO="164.78" HC="0.81" NOx="1.20" PMx="0.07" fuel="837.22" electricity="0.00" noise="55.94" route="!13" type="DEFAULT_VEHTYPE" waiting="0.00" lane="-336113403#1_0" pos="5.10" speed="0.00" angle="209.17" x="1241.71" y="657.03"/>
        <vehicle id="2" eclass="HBEFA3/PC_G_EU4" CO2="0.00" CO="0.00" HC="0.00" NOx="0.00" PMx="0.00" fuel="0.00" electricity="0.00" noise="63.05" route="!2" type="DEFAULT_VEHTYPE" waiting="0.00" lane="305735033#0_0" pos="100.64" speed="13.29" angle="150.69" x="1972.99" y="1986.04"/>
        <vehicle id="3" eclass="HBEFA3/PC_G_EU4" CO2="14524.12" CO="223.98" HC="1.38" NOx="6.32" PMx="0.33" fuel="4632.45" electricity="0.00" noise="74.87" route="!3" type="DEFAULT_VEHTYPE" waiting="0.00" lane="462111666#0_0" pos="115.28" speed="19.49" angle="319.38" x="1708.83" y="89.73"/>
        <vehicle id="4" eclass="HBEFA3/PC_G_EU4" CO2="5496.07" CO="57.24" HC="0.39" NOx="2.19" PMx="0.09" fuel="1752.98" electricity="0.00" noise="67.09" route="!4" type="DEFAULT_VEHTYPE" waiting="0.00" lane="305735031#0_0" pos="89.97" speed="14.18" angle="266.89" x="1477.78" y="472.14"/>
        <vehicle id="5" eclass="HBEFA3/PC_G_EU4" CO2="9192.65" CO="127.23" HC="0.80" NOx="3.90" PMx="0.19" fuel="2932.00" electricity="0.00" noise="70.59" route="!5" type="DEFAULT_VEHTYPE" waiting="0.00" lane="-462111667#2_0" pos="71.71" speed="15.33" angle="141.40" x="43.49" y="965.60"/>
        <vehicle id="6" eclass="HBEFA3/PC_G_EU4" CO2="0.00" CO="0.00" HC="0.00" NOx="0.00" PMx="0.00" fuel="0.00" electricity="0.00" noise="47.38" route="!6" type="DEFAULT_VEHTYPE" waiting="0.00" lane="-305735108_0" pos="44.72" speed="4.49" angle="18.60" x="1360.77" y="514.65"/>