<?xml version="1.0" encoding="UTF-8" ?>
<VTKFile type="PolyData" version="0.1" order="LittleEndian">
<PolyData>
 <Piece NumberOfPoints="17" NumberOfVerts="1" NumberOfLines="0" NumberOfStrips="0" NumberOfPolys="0">
<PointData>
 <DataArray type="Float64" Name="speed" format="ascii">12.946 13.5867 19.3635 13.5961 12.8897 6.40435 11.6192 10.6553 10.8396 13.7414 12.2206 8.4562 12.1457 3.62912 5.68015 14.9754 18.6361</DataArray>
</PointData>
<CellData/>
<Points>
 <DataArray type="Float64" Name="Points" NumberOfComponents="3" format="ascii">1954.36 1720.8 0 1944.8 1654.53 0 938.328 586.525 0 1509.88 774.856 0 1943.28 1579 0 1232.76 518.172 0 1857.24 1301.4 0 1269.15 548.01 0 1249.51 560.651 0 1847.15 1275.2 0 1986.61 1790.02 0 1257.77 578.306 0 1773.1 1132.54 0 1276.2 590.695 0 1283.87 598.966 0 1963.21 2010 0 1611.39 178.106 0</DataArray>
</Points>
<Verts>
 <DataArray type="Int64" Name="connectivity" format="ascii">0 1 2 3 4 5 6 7 8 9 10 11 12 13 14 15 16</DataArray>
 <DataArray type="Int64" Name="offsets" format="ascii">17</DataArray>
</Verts>
<Lines>
 <DataArray type="Int64" Name="connectivity" format="ascii"/>
 <DataArray type="Int64" Name="offsets" format="ascii"/>
</Lines>
<Stripes>
 <DataArray type="Int64" Name="connectivity" format="ascii"/>
 <DataArray type="Int64" Name="offsets" format="ascii"/>
</Stripes>
<Polys>
 <DataArray type="Int64" Name="connectivity" format="ascii"/>
 <DataArray type="Int64" Name="offsets" format="ascii"/>
</Polys>
</Piece>
</PolyData>
</VTKFile>