<?xml version="1.0" encoding="UTF-8" ?>
<VTKFile type="PolyData" version="0.1" order="LittleEndian">
<PolyData>
 <Piece NumberOfPoints="28" NumberOfVerts="1" NumberOfLines="0" NumberOfStrips="0" NumberOfPolys="0">
<PointData>
 <DataArray type="Float64" Name="speed" format="ascii">10.2931 12.8774 13.8947 13.8774 13.9587 11.7438 14.0087 10.4283 12.81 11.1412 11.4836 10.559 11.8979 20.126 10.7652 11.278 10.9996 13.4105 22.5474 13.1282 10.9428 12.1767 10.3311 9.73163 14.1722 13.7086 13.9875 12.107</DataArray>
</PointData>
<CellData/>
<Points>
 <DataArray type="Float64" Name="Points" NumberOfComponents="3" format="ascii">1323.72 474.685 0 1805 1201.36 0 1758.02 1096.64 0 1945.98 1670.33 0 1954.96 2024.7 0 1421.52 697.14 0 1264.26 556.826 0 1437.89 711.37 0 1728.92 1037.71 0 1956.29 1724.96 0 1965.51 1744.73 0 1556.64 821.576 0 1605.93 870.996 0 486.025 588.52 0 1570.05 836.316 0 1951.55 1705.92 0 1583.61 851.223 0 1531.19 794.104 0 660.357 568.877 0 1834.77 1253.52 0 1597.38 866.351 0 1454.64 721.694 0 1611.38 881.745 0 1624.96 897.972 0 1897.74 1413.84 0 1944.26 1596.31 0 1941.3 2044.65 0 1333.56 625.549 0</DataArray>
</Points>
<Verts>
 <DataArray type="Int64" Name="connectivity" format="ascii">0 1 2 3 4 5 6 7 8 9 10 11 12 13 14 15 16 17 18 19 20 21 22 23 24 25 26 27</DataArray>
 <DataArray type="Int64" Name="offsets" format="ascii">28</DataArray>
</Verts>
<Lines>
 <DataArray type="Int64" Name="connectivity" format="ascii"/>
 <DataArray type="Int64" Name="offsets" format="ascii"/>
</Lines>
<Stripes>
 <DataArray type="Int64" Name="connectivity" format="ascii"/>
 <DataArray type="Int64" Name="offsets" format="ascii"/>
</Stripes>
<Polys>
 <DataArray type="Int64" Name="connectivity" format="ascii"/>
 <DataArray type="Int64" Name="offsets" format="ascii"/>
</Polys>
</Piece>
</PolyData>
</VTKFile>