<?xml version="1.0" encoding="UTF-8" ?>
<VTKFile type="PolyData" version="0.1" order="LittleEndian">
<PolyData>
 <Piece NumberOfPoints="28" NumberOfVerts="1" NumberOfLines="0" NumberOfStrips="0" NumberOfPolys="0">
<PointData>
 <DataArray type="Float64" Name="speed" format="ascii">4.47127 11.8085 13.9272 13.4118 14.5276 11.5511 10.2011 11.2478 13.2362 11.0952 12.1358 10.4291 10.8876 19.5913 11.4498 11.9525 10.4431 12.8943 22.5981 12.4067 10.6482 11.9434 10.5066 9.56273 15.0083 13.7816 13.6134 11.2429</DataArray>
</PointData>
<CellData/>
<Points>
 <DataArray type="Float64" Name="Points" NumberOfComponents="3" format="ascii">1310.35 543.92 0 1758.58 1097.91 0 1694.25 993.391 0 1939.92 1544.75 0 2012.91 1916.57 0 1496.89 767.225 0 1307.25 560.207 0 1512.09 781.236 0 1657.02 942.575 0 1944.63 1622.53 0 1944.74 1644.1 0 1621.21 892.542 0 1535.91 797.874 0 645.773 564.21 0 1632.45 909.495 0 1944.53 1602.67 0 1643.36 926.379 0 1444.24 712.654 0 856.21 584.179 0 1780.88 1151.39 0 1654.01 943.787 0 1373.42 652.256 0 1664.72 961.294 0 1676.81 977.613 0 1854.21 1292.31 0 1921.06 1474.58 0 2002.89 1937.95 0 1415.6 692.254 0</DataArray>
</Points>
<Verts>
 <DataArray type="Int64" Name="connectivity" format="ascii">0 1 2 3 4 5 6 7 8 9 10 11 12 13 14 15 16 17 18 19 20 21 22 23 24 25 26 27</DataArray>
 <DataArray type="Int64" Name="offsets" format="ascii">28</DataArray>
</Verts>
<Lines>
 <DataArray type="Int64" Name="connectivity" format="ascii"/>
 <DataArray type="Int64" Name="offsets" format="ascii"/>
</Lines>
<Stripes>
 <DataArray type="Int64" Name="connectivity" format="ascii"/>
 <DataArray type="Int64" Name="offsets" format="ascii"/>
</Stripes>
<Polys>
 <DataArray type="Int64" Name="connectivity" format="ascii"/>
 <DataArray type="Int64" Name="offsets" format="ascii"/>
</Polys>
</Piece>
</PolyData>
</VTKFile>