<?xml version="1.0" encoding="UTF-8" ?>
<VTKFile type="PolyData" version="0.1" order="LittleEndian">
<PolyData>
 <Piece NumberOfPoints="40" NumberOfVerts="1" NumberOfLines="0" NumberOfStrips="0" NumberOfPolys="0">
<PointData>
 <DataArray type="Float64" Name="speed" format="ascii">14.4666 11.3882 17.2395 13.6761 13.7688 11.2155 17.9293 12.9127 10.8935 17.2806 11.3608 11.7324 11.4293 18.7442 18.2578 11.329 17.9456 20.4747 14.3772 11.318 21.5773 20.3395 21.9322 21.6174 12.7554 11.6491 10.2662 19.109 10.6963 12.1732 10.087 17.6926 14.1679 11.8054 10.2942 17.7049 17.9519 14.1253 11.4881 17.1084</DataArray>
</PointData>
<CellData/>
<Points>
 <DataArray type="Float64" Name="Points" NumberOfComponents="3" format="ascii">1709.6 1016.63 0 1246.31 549.637 0 1074.49 562.509 0 1531.67 794.491 0 1764.01 1110.5 0 1875.85 1367.22 0 1044.94 572.028 0 1757.59 1103.62 0 1882.96 1387.19 0 1018.57 580.145 0 1673.06 968.179 0 1686.63 984.32 0 1920.95 1486.52 0 827.176 581.47 0 797.293 581.975 0 1926.18 1505.97 0 767.572 583.917 0 720.053 582.731 0 1639.98 915.216 0 1931.63 1526.26 0 729.784 587.212 0 690.425 575.139 0 642.674 559.859 0 598.973 545.885 0 1258.28 571.353 0 1937.14 1546.77 0 1249.79 435.296 0 482.649 587.171 0 1939.44 1567.81 0 1941.46 1627.79 0 1303.23 606.962 0 1395.68 351.726 0 1479.46 745.309 0 1199.87 439.869 0 1354.25 386.385 0 844.53 584.377 0 1128.82 545.993 0 1772.87 1131.97 0 1837.92 1265.48 0 1100.7 554.065 0</DataArray>
</Points>
<Verts>
 <DataArray type="Int64" Name="connectivity" format="ascii">0 1 2 3 4 5 6 7 8 9 10 11 12 13 14 15 16 17 18 19 20 21 22 23 24 25 26 27 28 29 30 31 32 33 34 35 36 37 38 39</DataArray>
 <DataArray type="Int64" Name="offsets" format="ascii">40</DataArray>
</Verts>
<Lines>
 <DataArray type="Int64" Name="connectivity" format="ascii"/>
 <DataArray type="Int64" Name="offsets" format="ascii"/>
</Lines>
<Stripes>
 <DataArray type="Int64" Name="connectivity" format="ascii"/>
 <DataArray type="Int64" Name="offsets" format="ascii"/>
</Stripes>
<Polys>
 <DataArray type="Int64" Name="connectivity" format="ascii"/>
 <DataArray type="Int64" Name="offsets" format="ascii"/>
</Polys>
</Piece>
</PolyData>
</VTKFile>