<?xml version="1.0" encoding="UTF-8" ?>
<VTKFile type="PolyData" version="0.1" order="LittleEndian">
<PolyData>
 <Piece NumberOfPoints="24" NumberOfVerts="1" NumberOfLines="0" NumberOfStrips="0" NumberOfPolys="0">
<PointData>
 <DataArray type="Float64" Name="speed" format="ascii">12.9942 13.2411 12.0011 11.8206 13.7271 13.1175 11.4597 11.1919 10.6183 10.968 20.305 10.6259 12.0142 11.4181 13.7281 22.4735 13.3019 9.88647 11.4282 10.984 12.0887 14.1753 13.5273 18.7345</DataArray>
</PointData>
<CellData/>
<Points>
 <DataArray type="Float64" Name="Points" NumberOfComponents="3" format="ascii">1940.82 1548.11 0 1919.43 1468.52 0 1966.65 2003.88 0 1184.71 537.289 0 1371.04 650.177 0 1892.02 1400.35 0 1944.69 2040.15 0 1931.74 2057.41 0 1311.25 613.95 0 1784.69 1160.63 0 43.8599 970.262 0 1328.48 622.353 0 1956.21 2022.46 0 1345.29 632.936 0 1763.14 1108.39 0 125.527 873.217 0 1944.61 1617.77 0 1361.51 646.088 0 1690.09 988.436 0 1376.05 658.812 0 1390.91 671.817 0 2007.82 1826.74 0 1978.92 1982.01 0 1404.31 345.001 0</DataArray>
</Points>
<Verts>
 <DataArray type="Int64" Name="connectivity" format="ascii">0 1 2 3 4 5 6 7 8 9 10 11 12 13 14 15 16 17 18 19 20 21 22 23</DataArray>
 <DataArray type="Int64" Name="offsets" format="ascii">24</DataArray>
</Verts>
<Lines>
 <DataArray type="Int64" Name="connectivity" format="ascii"/>
 <DataArray type="Int64" Name="offsets" format="ascii"/>
</Lines>
<Stripes>
 <DataArray type="Int64" Name="connectivity" format="ascii"/>
 <DataArray type="Int64" Name="offsets" format="ascii"/>
</Stripes>
<Polys>
 <DataArray type="Int64" Name="connectivity" format="ascii"/>
 <DataArray type="Int64" Name="offsets" format="ascii"/>
</Polys>
</Piece>
</PolyData>
</VTKFile>