<?xml version="1.0" encoding="UTF-8" ?>
<VTKFile type="PolyData" version="0.1" order="LittleEndian">
<PolyData>
 <Piece NumberOfPoints="43" NumberOfVerts="1" NumberOfLines="0" NumberOfStrips="0" NumberOfPolys="0">
<PointData>
 <DataArray type="Float64" Name="speed" format="ascii">13.7198 20.746 16.5962 13.6245 13.3346 9.79372 12.15 19.7141 13.2866 11.9226 20.3275 11.4806 11.8144 11.4663 18.9972 19.454 11.1686 18.5969 20.4726 14.9351 6.1046 11.9524 21.9912 19.2271 20.8935 22.2226 20.3354 10.6256 3.90153 19.9653 14.1412 12.7067 13.8857 2.96261 13.2675 6.93703 4.18996 1.39187 18.0351 17.7414 14.5242 11.9204 17.6128</DataArray>
</PointData>
<CellData/>
<Points>
 <DataArray type="Float64" Name="Points" NumberOfComponents="3" format="ascii">1768.34 1129.37 0 1191.43 532.621 0 917.834 582.737 0 1441.29 710.088 0 1701.96 1002.56 0 1224.78 459.154 0 1914.34 1461.91 0 882.239 580.54 0 1806.87 1211.09 0 1920.01 1483 0 851.803 581.054 0 1613.63 879.459 0 1627.51 896.034 0 1940.28 1582.68 0 663.614 566.559 0 634.618 557.281 0 1941.33 1603.52 0 605.512 547.968 0 547.186 543.436 0 1555.82 815.93 0 1327.42 418.613 0 1941.44 1623.41 0 924.193 586.123 0 520.297 559.21 0 471.713 596.342 0 426.782 621.179 0 1260.21 496.033 0 1941.55 1645.16 0 1309.97 437.506 0 328.328 666.428 0 1943.41 1674.51 0 1959.62 1739.66 0 1302.47 570.124 0 1323.73 405.663 0 1385.78 663.077 0 1248.57 502.19 0 1261.63 559.226 0 1316.33 397.916 0 1005.44 586.783 0 975.498 584.362 0 1717.68 1022.02 0 1875.02 1364.74 0 946.426 583.55 0</DataArray>
</Points>
<Verts>
 <DataArray type="Int64" Name="connectivity" format="ascii">0 1 2 3 4 5 6 7 8 9 10 11 12 13 14 15 16 17 18 19 20 21 22 23 24 25 26 27 28 29 30 31 32 33 34 35 36 37 38 39 40 41 42</DataArray>
 <DataArray type="Int64" Name="offsets" format="ascii">43</DataArray>
</Verts>
<Lines>
 <DataArray type="Int64" Name="connectivity" format="ascii"/>
 <DataArray type="Int64" Name="offsets" format="ascii"/>
</Lines>
<Stripes>
 <DataArray type="Int64" Name="connectivity" format="ascii"/>
 <DataArray type="Int64" Name="offsets" format="ascii"/>
</Stripes>
<Polys>
 <DataArray type="Int64" Name="connectivity" format="ascii"/>
 <DataArray type="Int64" Name="offsets" format="ascii"/>
</Polys>
</Piece>
</PolyData>
</VTKFile>