<?xml version="1.0" encoding="UTF-8" ?>
<VTKFile type="PolyData" version="0.1" order="LittleEndian">
<PolyData>
 <Piece NumberOfPoints="35" NumberOfVerts="1" NumberOfLines="0" NumberOfStrips="0" NumberOfPolys="0">
<PointData>
 <DataArray type="Float64" Name="speed" format="ascii">13.8686 12.3819 13.6665 14.0793 14.6727 11.3469 20.2621 13.0217 12.2039 13.1645 12.1361 11.7013 10.7242 11.1093 14.1537 10.7339 8.29645 9.42415 11.6348 10.5451 21.7016 8.57477 7.18079 4.78552 13.079 11.47 19.3093 10.7061 13.1992 14.758 13.4251 18.6912 17.2646 13.9731 11.9004</DataArray>
</PointData>
<CellData/>
<Points>
 <DataArray type="Float64" Name="Points" NumberOfComponents="3" format="ascii">1377.39 659.981 0 1565.98 827.093 0 1452.66 719.973 0 1802.27 1196.58 0 1942.29 1561.58 0 1699.28 1004.35 0 1543.05 236.616 0 1468.27 738.656 0 1712.68 1020.54 0 1408.59 682.577 0 1863.72 1320.8 0 1870.39 1340.8 0 1773.37 1141.58 0 1297.72 604.559 0 1166.38 541.111 0 1781.15 1160.43 0 1244.44 490.947 0 1239.79 535.751 0 1856.9 1300.37 0 1788.81 1179.02 0 108.487 892.229 0 1230.05 519.398 0 1214.95 526.573 0 1200.82 530.665 0 1596.57 860.712 0 1798.48 1196.39 0 1130.39 545.65 0 1808.48 1213.9 0 1818.24 1231.01 0 1663.34 952.907 0 1772.14 1130.21 0 266.555 722.129 0 1615.32 174.745 0 1943.61 1584.79 0 1635.83 914.686 0</DataArray>
</Points>
<Verts>
 <DataArray type="Int64" Name="connectivity" format="ascii">0 1 2 3 4 5 6 7 8 9 10 11 12 13 14 15 16 17 18 19 20 21 22 23 24 25 26 27 28 29 30 31 32 33 34</DataArray>
 <DataArray type="Int64" Name="offsets" format="ascii">35</DataArray>
</Verts>
<Lines>
 <DataArray type="Int64" Name="connectivity" format="ascii"/>
 <DataArray type="Int64" Name="offsets" format="ascii"/>
</Lines>
<Stripes>
 <DataArray type="Int64" Name="connectivity" format="ascii"/>
 <DataArray type="Int64" Name="offsets" format="ascii"/>
</Stripes>
<Polys>
 <DataArray type="Int64" Name="connectivity" format="ascii"/>
 <DataArray type="Int64" Name="offsets" format="ascii"/>
</Polys>
</Piece>
</PolyData>
</VTKFile>