<?xml version="1.0" encoding="UTF-8" ?>
<VTKFile type="PolyData" version="0.1" order="LittleEndian">
<PolyData>
 <Piece NumberOfPoints="45" NumberOfVerts="1" NumberOfLines="0" NumberOfStrips="0" NumberOfPolys="0">
<PointData>
 <DataArray type="Float64" Name="speed" format="ascii">13.9754 20.2437 18.8053 13.5285 13.6574 12.5179 5.69466 11.4636 20.7343 13.3529 11.2989 20.9575 10.797 11.8539 11.213 18.3699 19.829 11.2161 19.5973 19.583 14.3373 0 12.0061 22.0968 20.3566 21.3211 21.3748 20.5467 10.779 20.8618 18.9323 13.1906 13.2226 8.73131 0 13.5791 12.9425 12.8342 11.685 0.00574923 17.8027 17.5455 14.3368 11.5161 17.6484</DataArray>
</PointData>
<CellData/>
<Points>
 <DataArray type="Float64" Name="Points" NumberOfComponents="3" format="ascii">1804.17 1206.37 0 1073.3 562.89 0 812.534 581.717 0 1378.75 656.926 0 1652.89 935.831 0 1288.53 295.814 0 1246.48 505.222 0 1932.5 1529.49 0 761.084 584.136 0 1847.2 1281.74 0 1938.16 1550.57 0 728.45 583.81 0 1566.06 827.19 0 1580.15 842.669 0 1941.57 1648.57 0 555.849 538.932 0 529.811 553.137 0 1942.47 1668.55 0 504.662 569.19 0 449.344 610.807 0 1491.72 757.54 0 1325.73 407.757 0 1945.56 1688.27 0 1051.95 573.14 0 421.077 623.75 0 356.474 651.525 0 308.826 678.295 0 1344.56 401.093 0 1949.06 1710.7 0 1369.33 376.331 0 239.96 742.581 0 1965.98 1753.32 0 1992.86 1807.92 0 1311.05 507.148 0 1320.55 402.333 0 1319.85 614.211 0 1239.56 542.85 0 1319.36 536.6 0 1545.09 509.549 0 1315.37 396.908 0 1110.57 554.244 0 869.792 580.751 0 1665.42 956.307 0 1901.47 1430.82 0 841.271 581.232 0</DataArray>
</Points>
<Verts>
 <DataArray type="Int64" Name="connectivity" format="ascii">0 1 2 3 4 5 6 7 8 9 10 11 12 13 14 15 16 17 18 19 20 21 22 23 24 25 26 27 28 29 30 31 32 33 34 35 36 37 38 39 40 41 42 43 44</DataArray>
 <DataArray type="Int64" Name="offsets" format="ascii">45</DataArray>
</Verts>
<Lines>
 <DataArray type="Int64" Name="connectivity" format="ascii"/>
 <DataArray type="Int64" Name="offsets" format="ascii"/>
</Lines>
<Stripes>
 <DataArray type="Int64" Name="connectivity" format="ascii"/>
 <DataArray type="Int64" Name="offsets" format="ascii"/>
</Stripes>
<Polys>
 <DataArray type="Int64" Name="connectivity" format="ascii"/>
 <DataArray type="Int64" Name="offsets" format="ascii"/>
</Polys>
</Piece>
</PolyData>
</VTKFile>