<?xml version="1.0" encoding="UTF-8" ?>
<VTKFile type="PolyData" version="0.1" order="LittleEndian">
<PolyData>
 <Piece NumberOfPoints="43" NumberOfVerts="1" NumberOfLines="0" NumberOfStrips="0" NumberOfPolys="0">
<PointData>
 <DataArray type="Float64" Name="speed" format="ascii">14.0659 3.8098 19.2204 13.2948 13.729 8.79046 11.1707 17.0845 12.8942 11.332 18.8286 11.8728 12.1768 10.5997 19.1326 17.7574 10.7359 18.3761 19.6076 14.8075 9.3863 11.5215 21.1911 20.5674 20.9249 21.5702 6.69188 11.4089 7.48622 19.7029 11.4699 13.2075 5.34277 10.4609 13.3708 9.97492 8.97642 5.20922 17.8004 17.4197 14.0488 11.6938 17.1497</DataArray>
</PointData>
<CellData/>
<Points>
 <DataArray type="Float64" Name="Points" NumberOfComponents="3" format="ascii">1740.21 1064 0 1231.27 522.064 0 1007.55 583.472 0 1490.9 756.725 0 1741.9 1059.87 0 1236.75 438.677 0 1892.19 1408.94 0 974.742 584.341 0 1777.9 1152.57 0 1900.61 1428.78 0 947.239 583.573 0 1648.09 927.988 0 1659.27 946.249 0 1932.39 1529.09 0 753.867 584.379 0 723.304 583.149 0 1937.72 1548.93 0 694.381 576.404 0 641.76 559.566 0 1604.43 869.348 0 1296.42 434.047 0 1939.48 1568.64 0 815.538 584.868 0 613.754 550.605 0 560.275 536.63 0 517.971 560.694 0 1238.19 532.316 0 1940.66 1589.37 0 1276.05 417.407 0 415.585 626.225 0 1941.38 1612.62 0 1944 1678.3 0 1278.33 590.14 0 1351.12 389.644 0 1437.91 707.151 0 1226.51 461.955 0 1273.91 543.651 0 1333.37 408.061 0 916.63 585.909 0 1060.91 566.883 0 1751.63 1082.06 0 1856.26 1308.53 0 1033.93 575.433 0</DataArray>
</Points>
<Verts>
 <DataArray type="Int64" Name="connectivity" format="ascii">0 1 2 3 4 5 6 7 8 9 10 11 12 13 14 15 16 17 18 19 20 21 22 23 24 25 26 27 28 29 30 31 32 33 34 35 36 37 38 39 40 41 42</DataArray>
 <DataArray type="Int64" Name="offsets" format="ascii">43</DataArray>
</Verts>
<Lines>
 <DataArray type="Int64" Name="connectivity" format="ascii"/>
 <DataArray type="Int64" Name="offsets" format="ascii"/>
</Lines>
<Stripes>
 <DataArray type="Int64" Name="connectivity" format="ascii"/>
 <DataArray type="Int64" Name="offsets" format="ascii"/>
</Stripes>
<Polys>
 <DataArray type="Int64" Name="connectivity" format="ascii"/>
 <DataArray type="Int64" Name="offsets" format="ascii"/>
</Polys>
</Piece>
</PolyData>
</VTKFile>