<?xml version="1.0" encoding="UTF-8" ?>
<VTKFile type="PolyData" version="0.1" order="LittleEndian">
<PolyData>
 <Piece NumberOfPoints="15" NumberOfVerts="1" NumberOfLines="0" NumberOfStrips="0" NumberOfPolys="0">
<PointData>
 <DataArray type="Float64" Name="speed" format="ascii">12.9951 13.2505 18.917 13.6605 13.0827 6.36154 11.5091 10.1765 11.403 12.6443 11.8226 11.6477 13.0547 7.26892 19.6131</DataArray>
</PointData>
<CellData/>
<Points>
 <DataArray type="Float64" Name="Points" NumberOfComponents="3" format="ascii">2023.2 1855.24 0 1996.22 1807.31 0 712.993 585.052 0 1624.15 891.028 0 1962.37 1737.99 0 1294.4 432.366 0 1905.59 1432.31 0 1351.41 496.879 0 1897.11 1412.35 0 2006.62 1929.99 0 1360.89 521.025 0 1838.21 1259.54 0 1387.18 664.302 0 1234.7 532.395 0 1768.87 12.7921 0</DataArray>
</Points>
<Verts>
 <DataArray type="Int64" Name="connectivity" format="ascii">0 1 2 3 4 5 6 7 8 9 10 11 12 13 14</DataArray>
 <DataArray type="Int64" Name="offsets" format="ascii">15</DataArray>
</Verts>
<Lines>
 <DataArray type="Int64" Name="connectivity" format="ascii"/>
 <DataArray type="Int64" Name="offsets" format="ascii"/>
</Lines>
<Stripes>
 <DataArray type="Int64" Name="connectivity" format="ascii"/>
 <DataArray type="Int64" Name="offsets" format="ascii"/>
</Stripes>
<Polys>
 <DataArray type="Int64" Name="connectivity" format="ascii"/>
 <DataArray type="Int64" Name="offsets" format="ascii"/>
</Polys>
</Piece>
</PolyData>
</VTKFile>