<?xml version="1.0" encoding="UTF-8" ?>
<VTKFile type="PolyData" version="0.1" order="LittleEndian">
<PolyData>
 <Piece NumberOfPoints="13" NumberOfVerts="1" NumberOfLines="0" NumberOfStrips="0" NumberOfPolys="0">
<PointData>
 <DataArray type="Float64" Name="speed" format="ascii">11.9507 13.5731 18.5774 13.708 13.4385 11.6451 10.5892 11.1248 12.3973 15.7144 12.2142 13.1247 17.365</DataArray>
</PointData>
<CellData/>
<Points>
 <DataArray type="Float64" Name="Points" NumberOfComponents="3" format="ascii">1992.31 1958.16 0 2011.01 1920.61 0 552.195 544.437 0 1691.76 990.427 0 2018.3 1844.28 0 1936.05 1530.38 0 1313.95 483.755 0 1930.62 1510.14 0 1951.74 2030.43 0 1494.73 526.274 0 1876.21 1358.23 0 1478.83 744.679 0 1152 544.207 0</DataArray>
</Points>
<Verts>
 <DataArray type="Int64" Name="connectivity" format="ascii">0 1 2 3 4 5 6 7 8 9 10 11 12</DataArray>
 <DataArray type="Int64" Name="offsets" format="ascii">13</DataArray>
</Verts>
<Lines>
 <DataArray type="Int64" Name="connectivity" format="ascii"/>
 <DataArray type="Int64" Name="offsets" format="ascii"/>
</Lines>
<Stripes>
 <DataArray type="Int64" Name="connectivity" format="ascii"/>
 <DataArray type="Int64" Name="offsets" format="ascii"/>
</Stripes>
<Polys>
 <DataArray type="Int64" Name="connectivity" format="ascii"/>
 <DataArray type="Int64" Name="offsets" format="ascii"/>
</Polys>
</Piece>
</PolyData>
</VTKFile>