<?xml version="1.0" encoding="UTF-8" ?>
<VTKFile type="PolyData" version="0.1" order="LittleEndian">
<PolyData>
 <Piece NumberOfPoints="30" NumberOfVerts="1" NumberOfLines="0" NumberOfStrips="0" NumberOfPolys="0">
<PointData>
 <DataArray type="Float64" Name="speed" format="ascii">6.66351 12.6929 13.3975 14.4352 14.3021 11.2999 4.87536 12.2331 13.8006 12.4815 12.0617 10.4238 11.0269 19.631 10.7859 10.4237 10.7394 15.3306 13.7852 22.4168 12.5468 10.8346 12.1341 10.9711 10.4897 14.1831 14.2452 18.6734 14.1756 11.3555</DataArray>
</PointData>
<CellData/>
<Points>
 <DataArray type="Float64" Name="Points" NumberOfComponents="3" format="ascii">1284.05 578.653 0 1733 1043.4 0 1654.11 937.818 0 1921.97 1477.96 0 2022.38 1852.04 0 1540.96 805.996 0 1272.32 586.178 0 1555.4 820.223 0 1620.62 887.146 0 1942.42 1563.78 0 1943.66 1585.73 0 1650.3 937.715 0 1494.4 760.22 0 740.285 588.042 0 1660.72 954.747 0 1939.22 1542.16 0 1672.1 972.014 0 1518.97 481.137 0 1393.36 669.716 0 968.247 587.36 0 1756.28 1092.67 0 1685.08 987.461 0 1324.45 616.216 0 1698.07 1002.92 0 1711.67 1019.14 0 1820.61 1228.71 0 1896.08 1409.91 0 3.32501 1021.03 0 2026.7 1874.74 0 1460.51 731.039 0</DataArray>
</Points>
<Verts>
 <DataArray type="Int64" Name="connectivity" format="ascii">0 1 2 3 4 5 6 7 8 9 10 11 12 13 14 15 16 17 18 19 20 21 22 23 24 25 26 27 28 29</DataArray>
 <DataArray type="Int64" Name="offsets" format="ascii">30</DataArray>
</Verts>
<Lines>
 <DataArray type="Int64" Name="connectivity" format="ascii"/>
 <DataArray type="Int64" Name="offsets" format="ascii"/>
</Lines>
<Stripes>
 <DataArray type="Int64" Name="connectivity" format="ascii"/>
 <DataArray type="Int64" Name="offsets" format="ascii"/>
</Stripes>
<Polys>
 <DataArray type="Int64" Name="connectivity" format="ascii"/>
 <DataArray type="Int64" Name="offsets" format="ascii"/>
</Polys>
</Piece>
</PolyData>
</VTKFile>