<?xml version="1.0" encoding="UTF-8" ?>
<VTKFile type="PolyData" version="0.1" order="LittleEndian">
<PolyData>
 <Piece NumberOfPoints="43" NumberOfVerts="1" NumberOfLines="0" NumberOfStrips="0" NumberOfPolys="0">
<PointData>
 <DataArray type="Float64" Name="speed" format="ascii">14.3693 6.60678 16.3974 13.9092 13.8822 12.498 11.3674 18.7284 13.5447 10.9295 18.876 12.5914 11.9022 11.3281 18.111 18.6455 10.9378 19.2804 20.1176 15.0146 12.6466 10.1072 21.4274 20.2459 21.5473 22.3427 10.603 10.5717 7.07238 19.3821 11.4609 13.1188 6.64254 13.4138 13.6236 8.43375 13.0753 6.44978 17.745 17.6612 13.3218 12.1384 18.5206</DataArray>
</PointData>
<CellData/>
<Points>
 <DataArray type="Float64" Name="Points" NumberOfComponents="3" format="ascii">1726.22 1039.43 0 1237.71 531.269 0 1040.31 573.474 0 1510.89 775.787 0 1753.3 1085.86 0 1255.62 426.083 0 1883.46 1388.37 0 1011.96 582.174 0 1767.66 1127.72 0 1891.79 1407.99 0 982.653 584.562 0 1660.9 948.917 0 1671.86 966.757 0 1926.8 1508.3 0 790.175 582.546 0 760.604 584.152 0 1932.18 1528.29 0 730.745 584.105 0 680.565 571.983 0 1624.24 891.126 0 1278.29 418.931 0 1937.4 1547.74 0 772.689 586.95 0 651.449 562.666 0 601.734 546.759 0 556.945 538.362 0 1246.26 549.541 0 1939.45 1568.01 0 1264.13 422.996 0 451.192 609.649 0 1940.66 1589.49 0 1941.6 1653.13 0 1287.36 597.71 0 1369.39 372.228 0 1459.01 725.493 0 1218.82 449.68 0 1297.4 537.308 0 1341.39 399.779 0 881.116 583.757 0 1094.66 556.011 0 1762.31 1106.43 0 1848.58 1285.54 0 1067.91 564.628 0</DataArray>
</Points>
<Verts>
 <DataArray type="Int64" Name="connectivity" format="ascii">0 1 2 3 4 5 6 7 8 9 10 11 12 13 14 15 16 17 18 19 20 21 22 23 24 25 26 27 28 29 30 31 32 33 34 35 36 37 38 39 40 41 42</DataArray>
 <DataArray type="Int64" Name="offsets" format="ascii">43</DataArray>
</Verts>
<Lines>
 <DataArray type="Int64" Name="connectivity" format="ascii"/>
 <DataArray type="Int64" Name="offsets" format="ascii"/>
</Lines>
<Stripes>
 <DataArray type="Int64" Name="connectivity" format="ascii"/>
 <DataArray type="Int64" Name="offsets" format="ascii"/>
</Stripes>
<Polys>
 <DataArray type="Int64" Name="connectivity" format="ascii"/>
 <DataArray type="Int64" Name="offsets" format="ascii"/>
</Polys>
</Piece>
</PolyData>
</VTKFile>