<?xml version="1.0" encoding="UTF-8" ?>
<VTKFile type="PolyData" version="0.1" order="LittleEndian">
<PolyData>
 <Piece NumberOfPoints="31" NumberOfVerts="1" NumberOfLines="0" NumberOfStrips="0" NumberOfPolys="0">
<PointData>
 <DataArray type="Float64" Name="speed" format="ascii">14.6962 19.8129 7.70763 19.3325 22.5684 8.38245 1.88717 12.6872 11.0489 20.1522 9.9221 23.7154 13.4727 12.9413 19.6676 5.83851 6.08691 11.2389 11.4012 6.30791 8.75088 0 23.7284 1.50436 0 12.8906 18.4216 8.84707 12.1455 17.8149 6.53973</DataArray>
</PointData>
<CellData/>
<Points>
 <DataArray type="Float64" Name="Points" NumberOfComponents="3" format="ascii">1949.84 1715.69 0 351.246 653.74 0 1374.17 524.955 0 211.432 772.574 0 1568.8 218.758 0 1278.21 590.094 0 1214.59 615.22 0 1406.58 529.04 0 1997.55 1941.79 0 119.931 874.667 0 1230.34 603.778 0 1676.42 121.862 0 1973.69 1769.87 0 1976.69 1979.45 0 68.9928 933.659 0 1235.54 557.119 0 1251.73 583.224 0 1951.73 2023.91 0 25.6135 987.993 0 10.1384 1007.38 0 1935.05 2047.61 0 1.932 1017.65 0 1389.8 360.38 0 1283.3 268.643 0 1922.24 2066.78 0 1403.17 464.795 0 255.024 728.519 0 1293.39 602.67 0 2019.25 1852.7 0 231.625 750.361 0 1360.32 520.748 0</DataArray>
</Points>
<Verts>
 <DataArray type="Int64" Name="connectivity" format="ascii">0 1 2 3 4 5 6 7 8 9 10 11 12 13 14 15 16 17 18 19 20 21 22 23 24 25 26 27 28 29 30</DataArray>
 <DataArray type="Int64" Name="offsets" format="ascii">31</DataArray>
</Verts>
<Lines>
 <DataArray type="Int64" Name="connectivity" format="ascii"/>
 <DataArray type="Int64" Name="offsets" format="ascii"/>
</Lines>
<Stripes>
 <DataArray type="Int64" Name="connectivity" format="ascii"/>
 <DataArray type="Int64" Name="offsets" format="ascii"/>
</Stripes>
<Polys>
 <DataArray type="Int64" Name="connectivity" format="ascii"/>
 <DataArray type="Int64" Name="offsets" format="ascii"/>
</Polys>
</Piece>
</PolyData>
</VTKFile>