<?xml version="1.0" encoding="UTF-8" ?>
<VTKFile type="PolyData" version="0.1" order="LittleEndian">
<PolyData>
 <Piece NumberOfPoints="38" NumberOfVerts="1" NumberOfLines="0" NumberOfStrips="0" NumberOfPolys="0">
<PointData>
 <DataArray type="Float64" Name="speed" format="ascii">14.3593 12.2686 13.0027 13.8439 14.6423 12.0234 20.2091 12.8533 12.3711 11.0289 11.3418 11.7673 11.314 14.4402 18.1518 11.3783 17.9527 20.1458 13.165 10.5095 21.3303 18.2496 19.7109 21.5737 13.5031 9.01561 19.4577 11.2621 12.4035 14.7177 22.585 13.9624 19.2002 17.7166 18.3163 13.4955 11.6855 12.274</DataArray>
</PointData>
<CellData/>
<Points>
 <DataArray type="Float64" Name="Points" NumberOfComponents="3" format="ascii">1522.46 790.779 0 1439.34 708.393 0 1301.77 606.324 0 1717.43 1021.66 0 1882.8 1377.98 0 1775.52 1146.8 0 1326.87 415.044 0 1601.82 871.239 0 1783.55 1166.25 0 1262.98 579.081 0 1790.66 1175.11 0 1800.5 1193.48 0 1843.57 1275.37 0 1209.74 528.806 0 1184.35 534.098 0 1851.61 1294.61 0 1155.76 540.108 0 1127.87 546.202 0 1782.96 1156.44 0 1858.38 1314.91 0 319.008 675.702 0 1097.5 555.095 0 1069.27 564.191 0 1040.52 573.411 0 1467.38 733.254 0 1864.51 1333.25 0 866.698 580.803 0 1870.75 1351.96 0 1878.36 1374.76 0 1534.83 797.007 0 1743.66 44.2068 0 1670.82 965.134 0 1646.86 146.514 0 483.496 590.642 0 1421.93 331.255 0 1891.65 1399.49 0 1730.77 1045.78 0 1303.78 385.253 0</DataArray>
</Points>
<Verts>
 <DataArray type="Int64" Name="connectivity" format="ascii">0 1 2 3 4 5 6 7 8 9 10 11 12 13 14 15 16 17 18 19 20 21 22 23 24 25 26 27 28 29 30 31 32 33 34 35 36 37</DataArray>
 <DataArray type="Int64" Name="offsets" format="ascii">38</DataArray>
</Verts>
<Lines>
 <DataArray type="Int64" Name="connectivity" format="ascii"/>
 <DataArray type="Int64" Name="offsets" format="ascii"/>
</Lines>
<Stripes>
 <DataArray type="Int64" Name="connectivity" format="ascii"/>
 <DataArray type="Int64" Name="offsets" format="ascii"/>
</Stripes>
<Polys>
 <DataArray type="Int64" Name="connectivity" format="ascii"/>
 <DataArray type="Int64" Name="offsets" format="ascii"/>
</Polys>
</Piece>
</PolyData>
</VTKFile>