<?xml version="1.0" encoding="UTF-8" ?>
<VTKFile type="PolyData" version="0.1" order="LittleEndian">
<PolyData>
 <Piece NumberOfPoints="38" NumberOfVerts="1" NumberOfLines="0" NumberOfStrips="0" NumberOfPolys="0">
<PointData>
 <DataArray type="Float64" Name="speed" format="ascii">14.7035 12.8192 13.2295 13.7712 13.8007 12.145 15.1147 12.9083 10.6622 7.78223 11.6795 11.125 11.2237 18.6367 19.3839 9.99345 18.888 19.5972 11.8845 10.486 21.842 17.4737 20.2994 21.0709 12.861 11.6374 19.8641 11.6749 12.481 14.668 22.239 14.1013 19.1919 18.7 17.8189 14.0639 11.2251 8.51198</DataArray>
</PointData>
<CellData/>
<Points>
 <DataArray type="Float64" Name="Points" NumberOfComponents="3" format="ascii">1572.98 839.533 0 1391.8 668.349 0 1257.52 569.157 0 1672.06 966.986 0 1860.46 1311.04 0 1800.19 1199.39 0 1262.41 488.84 0 1641.64 923.63 0 1811.07 1218.45 0 1235.95 527.493 0 1768.68 1121.82 0 1776.4 1140.53 0 1862.1 1326.02 0 1122.43 547.39 0 1093.62 556.346 0 1868.52 1345.28 0 1064 565.889 0 1034.29 575.322 0 1759.92 1100.96 0 1874.87 1364.29 0 417.213 628.999 0 1004.92 583.611 0 975.024 584.349 0 941.398 583.409 0 1418.7 690.635 0 1881.11 1382.83 0 770.521 583.818 0 1889.65 1402.96 0 1902.15 1432.42 0 1481.38 747.223 0 1667.37 126.145 0 1634.35 906.551 0 1575.97 208.404 0 559.472 540.654 0 1352.91 387.784 0 1867.94 1333.44 0 1755.65 1099.2 0 1323.15 419.021 0</DataArray>
</Points>
<Verts>
 <DataArray type="Int64" Name="connectivity" format="ascii">0 1 2 3 4 5 6 7 8 9 10 11 12 13 14 15 16 17 18 19 20 21 22 23 24 25 26 27 28 29 30 31 32 33 34 35 36 37</DataArray>
 <DataArray type="Int64" Name="offsets" format="ascii">38</DataArray>
</Verts>
<Lines>
 <DataArray type="Int64" Name="connectivity" format="ascii"/>
 <DataArray type="Int64" Name="offsets" format="ascii"/>
</Lines>
<Stripes>
 <DataArray type="Int64" Name="connectivity" format="ascii"/>
 <DataArray type="Int64" Name="offsets" format="ascii"/>
</Stripes>
<Polys>
 <DataArray type="Int64" Name="connectivity" format="ascii"/>
 <DataArray type="Int64" Name="offsets" format="ascii"/>
</Polys>
</Piece>
</PolyData>
</VTKFile>