<?xml version="1.0" encoding="UTF-8" ?>
<VTKFile type="PolyData" version="0.1" order="LittleEndian">
<PolyData>
 <Piece NumberOfPoints="37" NumberOfVerts="1" NumberOfLines="0" NumberOfStrips="0" NumberOfPolys="0">
<PointData>
 <DataArray type="Float64" Name="speed" format="ascii">13.5653 12.672 13.7264 14.0588 12.895 12.0295 20.738 13.9073 12.0274 13.1801 12.7211 11.8525 10.4024 6.2159 6.84949 11.552 12.092 15.4031 12.1489 11.3045 21.27 18.5586 17.536 19.7902 12.5828 9.64223 18.8427 12.0433 11.7723 14.9972 14.3393 18.2117 18.2191 18.1135 13.6478 11.8112 12.2212</DataArray>
</PointData>
<CellData/>
<Points>
 <DataArray type="Float64" Name="Points" NumberOfComponents="3" format="ascii">1492.04 762.377 0 1467.62 733.493 0 1338.01 624.565 0 1740.12 1055.83 0 1898.41 1415.42 0 1762.18 1114.44 0 1370.73 371.184 0 1574.21 840.887 0 1770.07 1133.59 0 1291.37 601.048 0 1808.18 1206.94 0 1818.39 1224.82 0 1827.56 1247.34 0 1231.61 522.296 0 1216.7 525.796 0 1837.38 1264.53 0 1201.11 530.604 0 1178.61 535.294 0 1797.67 1188.53 0 1847.7 1282.9 0 270.409 718.531 0 1152.52 540.817 0 1122.75 547.321 0 1095.34 555.791 0 1494.35 760.169 0 1854.38 1302.91 0 923.865 582.909 0 1860.61 1321.58 0 1867.57 1342.43 0 1566.2 827.344 0 1697.68 997.465 0 1686.78 107.453 0 437.818 619.714 0 1465.52 298.827 0 1907.71 1437.33 0 1710.49 1017.69 0 1296.89 349.212 0</DataArray>
</Points>
<Verts>
 <DataArray type="Int64" Name="connectivity" format="ascii">0 1 2 3 4 5 6 7 8 9 10 11 12 13 14 15 16 17 18 19 20 21 22 23 24 25 26 27 28 29 30 31 32 33 34 35 36</DataArray>
 <DataArray type="Int64" Name="offsets" format="ascii">37</DataArray>
</Verts>
<Lines>
 <DataArray type="Int64" Name="connectivity" format="ascii"/>
 <DataArray type="Int64" Name="offsets" format="ascii"/>
</Lines>
<Stripes>
 <DataArray type="Int64" Name="connectivity" format="ascii"/>
 <DataArray type="Int64" Name="offsets" format="ascii"/>
</Stripes>
<Polys>
 <DataArray type="Int64" Name="connectivity" format="ascii"/>
 <DataArray type="Int64" Name="offsets" format="ascii"/>
</Polys>
</Piece>
</PolyData>
</VTKFile>