<?xml version="1.0" encoding="UTF-8" ?>
<VTKFile type="PolyData" version="0.1" order="LittleEndian">
<PolyData>
 <Piece NumberOfPoints="35" NumberOfVerts="1" NumberOfLines="0" NumberOfStrips="0" NumberOfPolys="0">
<PointData>
 <DataArray type="Float64" Name="speed" format="ascii">14.0847 11.8554 13.4108 13.9392 14.0551 11.9434 20.6686 13.5763 11.2667 13.7454 11.1134 11.3045 11.1274 10.9693 16.3656 10.1802 10.0607 10.7352 11.515 10.9206 22.0563 10.4639 7.65998 6.88835 13.4643 10.8775 19.0963 11.4222 10.6503 14.7141 14.4555 17.8364 18.115 13.7116 12.1598</DataArray>
</PointData>
<CellData/>
<Points>
 <DataArray type="Float64" Name="Points" NumberOfComponents="3" format="ascii">1366.79 650.705 0 1573.96 835.862 0 1462.78 728.772 0 1809.18 1208.69 0 1943.09 1575.61 0 1691.59 995.208 0 1558.73 223.155 0 1458.47 729.266 0 1705.56 1011.82 0 1419.34 691.146 0 1867.24 1331.34 0 1873.97 1351.52 0 1769.13 1131.29 0 1307.78 608.944 0 1150.39 544.558 0 1777.26 1151.02 0 1239.15 482.389 0 1244.32 545.486 0 1860.55 1311.29 0 1784.65 1168.92 0 93.7667 908.653 0 1238.11 512.739 0 1221.95 523.461 0 1207.56 529.26 0 1605.63 870.67 0 1793.09 1186.94 0 1149.05 541.575 0 1802.81 1203.98 0 1812.96 1221.76 0 1671.02 965.458 0 1777.65 1143.57 0 253.517 734.301 0 1629.09 162.969 0 1944.38 1598.48 0 1629.2 904.492 0</DataArray>
</Points>
<Verts>
 <DataArray type="Int64" Name="connectivity" format="ascii">0 1 2 3 4 5 6 7 8 9 10 11 12 13 14 15 16 17 18 19 20 21 22 23 24 25 26 27 28 29 30 31 32 33 34</DataArray>
 <DataArray type="Int64" Name="offsets" format="ascii">35</DataArray>
</Verts>
<Lines>
 <DataArray type="Int64" Name="connectivity" format="ascii"/>
 <DataArray type="Int64" Name="offsets" format="ascii"/>
</Lines>
<Stripes>
 <DataArray type="Int64" Name="connectivity" format="ascii"/>
 <DataArray type="Int64" Name="offsets" format="ascii"/>
</Stripes>
<Polys>
 <DataArray type="Int64" Name="connectivity" format="ascii"/>
 <DataArray type="Int64" Name="offsets" format="ascii"/>
</Polys>
</Piece>
</PolyData>
</VTKFile>