<?xml version="1.0" encoding="UTF-8" ?>
<VTKFile type="PolyData" version="0.1" order="LittleEndian">
<PolyData>
 <Piece NumberOfPoints="45" NumberOfVerts="1" NumberOfLines="0" NumberOfStrips="0" NumberOfPolys="0">
<PointData>
 <DataArray type="Float64" Name="speed" format="ascii">14.4876 20.4291 18.3561 13.6156 14.2535 12.5236 7.48088 11.3961 20.8887 12.8212 11.0875 20.8426 12.0604 11.0969 11.3692 19.1632 18.8671 10.736 19.0337 19.4891 14.4257 0 10.2878 21.3774 19.9249 21.8121 22.2786 21.1874 10.0502 22.2206 19.7285 13.9012 13.0146 7.04194 0 13.3297 9.02141 10.5929 12.506 0.0242262 17.9618 18.2562 13.5566 11.4272 17.2283</DataArray>
</PointData>
<CellData/>
<Points>
 <DataArray type="Float64" Name="Points" NumberOfComponents="3" format="ascii">1817.94 1230.49 0 1035.14 575.06 0 777.034 583.598 0 1358.28 639.001 0 1638.77 913.354 0 1294.06 320.766 0 1235.12 515.43 0 1938.42 1551.52 0 719.607 582.673 0 1855.77 1307.07 0 1939.72 1572.77 0 688.328 574.467 0 1551.41 811.081 0 1564.67 825.653 0 1942.85 1670.92 0 523.002 557.483 0 497.536 574.688 0 1946.03 1691.34 0 475.626 593.06 0 413.08 627.354 0 1470.97 736.84 0 1325.73 407.757 0 1949.09 1710.9 0 1094.07 559.563 0 384.308 639.729 0 318.452 672.313 0 277.548 707.493 0 1374.09 372.624 0 1955.22 1730.23 0 1403.14 349.972 0 213.236 770.561 0 1977.59 1778.24 0 2005.89 1829.74 0 1306.81 491.936 0 1320.55 402.333 0 1294.19 603.018 0 1251.58 563.702 0 1344.28 532.661 0 1523.27 516.792 0 1315.36 396.897 0 1145.17 545.698 0 834.481 581.347 0 1651 932.747 0 1910.69 1452.53 0 804.646 581.851 0</DataArray>
</Points>
<Verts>
 <DataArray type="Int64" Name="connectivity" format="ascii">0 1 2 3 4 5 6 7 8 9 10 11 12 13 14 15 16 17 18 19 20 21 22 23 24 25 26 27 28 29 30 31 32 33 34 35 36 37 38 39 40 41 42 43 44</DataArray>
 <DataArray type="Int64" Name="offsets" format="ascii">45</DataArray>
</Verts>
<Lines>
 <DataArray type="Int64" Name="connectivity" format="ascii"/>
 <DataArray type="Int64" Name="offsets" format="ascii"/>
</Lines>
<Stripes>
 <DataArray type="Int64" Name="connectivity" format="ascii"/>
 <DataArray type="Int64" Name="offsets" format="ascii"/>
</Stripes>
<Polys>
 <DataArray type="Int64" Name="connectivity" format="ascii"/>
 <DataArray type="Int64" Name="offsets" format="ascii"/>
</Polys>
</Piece>
</PolyData>
</VTKFile>