<?xml version="1.0" encoding="UTF-8" ?>
<VTKFile type="PolyData" version="0.1" order="LittleEndian">
<PolyData>
 <Piece NumberOfPoints="32" NumberOfVerts="1" NumberOfLines="0" NumberOfStrips="0" NumberOfPolys="0">
<PointData>
 <DataArray type="Float64" Name="speed" format="ascii">1.34066 11.9981 13.6961 14.1698 12.8446 11.3303 19.7603 13.6452 11.965 13.7469 11.4544 12.0454 10.9457 11.9671 19.7519 11.7314 11.8902 11.8543 15.3745 12.4045 12.473 12.3326 12.0715 8.25062 11.3241 11.3308 14.3855 14.455 17.8724 18.3151 13.5756 11.4404</DataArray>
</PointData>
<CellData/>
<Points>
 <DataArray type="Float64" Name="Points" NumberOfComponents="3" format="ascii">1273.32 589.387 0 1651.28 933.204 0 1560.53 821.113 0 1868.14 1334.06 0 1952.72 1713.44 0 1627.08 901.235 0 1705.87 88.2633 0 1356.94 642.087 0 1638.35 918.562 0 1518.44 782.733 0 1908.34 1438.8 0 1916.84 1458.86 0 1721.09 1032.27 0 1400.07 675.586 0 959.307 587.111 0 1732.32 1047.95 0 1900.49 1420.31 0 1741.54 1067.01 0 1351.08 461.158 0 1274.99 587.463 0 1181.33 537.995 0 1680.14 976.602 0 1750.17 1086.71 0 1239.68 535.503 0 1758.42 1105.5 0 1766.16 1124.09 0 1752.47 1083.98 0 1842.31 1266.73 0 130.459 867.714 0 1752.2 33.6194 0 1961.1 1735.27 0 1552.94 817.514 0</DataArray>
</Points>
<Verts>
 <DataArray type="Int64" Name="connectivity" format="ascii">0 1 2 3 4 5 6 7 8 9 10 11 12 13 14 15 16 17 18 19 20 21 22 23 24 25 26 27 28 29 30 31</DataArray>
 <DataArray type="Int64" Name="offsets" format="ascii">32</DataArray>
</Verts>
<Lines>
 <DataArray type="Int64" Name="connectivity" format="ascii"/>
 <DataArray type="Int64" Name="offsets" format="ascii"/>
</Lines>
<Stripes>
 <DataArray type="Int64" Name="connectivity" format="ascii"/>
 <DataArray type="Int64" Name="offsets" format="ascii"/>
</Stripes>
<Polys>
 <DataArray type="Int64" Name="connectivity" format="ascii"/>
 <DataArray type="Int64" Name="offsets" format="ascii"/>
</Polys>
</Piece>
</PolyData>
</VTKFile>