<?xml version="1.0" encoding="UTF-8" ?>
<VTKFile type="PolyData" version="0.1" order="LittleEndian">
<PolyData>
 <Piece NumberOfPoints="35" NumberOfVerts="1" NumberOfLines="0" NumberOfStrips="0" NumberOfPolys="0">
<PointData>
 <DataArray type="Float64" Name="speed" format="ascii">13.6704 13.0307 13.6548 13.6851 14.5447 12.0903 19.6454 14.0316 11.7396 12.762 11.2236 11.5794 11.2113 10.2222 10.1894 11.1895 10.1486 7.35705 12.0962 10.4981 22.1343 5.1859 4.08933 3.15015 13.3057 12.4409 19.4229 11.2124 10.0195 14.7161 13.7191 17.6262 17.4451 13.7981 11.9919</DataArray>
</PointData>
<CellData/>
<Points>
 <DataArray type="Float64" Name="Points" NumberOfComponents="3" format="ascii">1398.45 678.42 0 1549.43 808.909 0 1431.85 701.878 0 1789.31 1171.85 0 1936.85 1533.33 0 1714.1 1022.53 0 1514.66 263.132 0 1487.16 757.505 0 1726.82 1040.27 0 1388.06 665.076 0 1855.98 1297.61 0 1862.91 1318.38 0 1781.69 1161.76 0 1279.47 591.137 0 1191.85 535.801 0 1789.35 1180.32 0 1246.84 504.9 0 1231.29 522.076 0 1849.36 1279.07 0 1799.78 1198.66 0 137.014 860.4 0 1216.33 525.958 0 1203.69 530.066 0 1192.03 532.496 0 1579.08 841.495 0 1809.52 1215.73 0 1093.01 556.542 0 1820.09 1234.25 0 1830.06 1251.72 0 1648.29 928.309 0 1761.64 1104.88 0 294.029 696.481 0 1588.76 197.471 0 1942.02 1556.68 0 1648.64 935.014 0</DataArray>
</Points>
<Verts>
 <DataArray type="Int64" Name="connectivity" format="ascii">0 1 2 3 4 5 6 7 8 9 10 11 12 13 14 15 16 17 18 19 20 21 22 23 24 25 26 27 28 29 30 31 32 33 34</DataArray>
 <DataArray type="Int64" Name="offsets" format="ascii">35</DataArray>
</Verts>
<Lines>
 <DataArray type="Int64" Name="connectivity" format="ascii"/>
 <DataArray type="Int64" Name="offsets" format="ascii"/>
</Lines>
<Stripes>
 <DataArray type="Int64" Name="connectivity" format="ascii"/>
 <DataArray type="Int64" Name="offsets" format="ascii"/>
</Stripes>
<Polys>
 <DataArray type="Int64" Name="connectivity" format="ascii"/>
 <DataArray type="Int64" Name="offsets" format="ascii"/>
</Polys>
</Piece>
</PolyData>
</VTKFile>