<?xml version="1.0" encoding="UTF-8" ?>
<VTKFile type="PolyData" version="0.1" order="LittleEndian">
<PolyData>
 <Piece NumberOfPoints="43" NumberOfVerts="1" NumberOfLines="0" NumberOfStrips="0" NumberOfPolys="0">
<PointData>
 <DataArray type="Float64" Name="speed" format="ascii">14.5978 20.1925 17.5238 13.9125 13.7575 8.70412 11.3038 20.6814 13.7299 11.1397 19.51 11.8059 11.9006 11.3342 18.1629 19.9593 11.4578 18.7808 19.6233 14.1183 0 9.98094 21.2353 20.1421 20.8356 22.3974 21.4752 10.8485 17.3653 19.3307 13.7197 12.856 9.77715 0 14.2792 6.97689 12.907 0 18.4659 17.8325 14.1642 12.1666 17.1752</DataArray>
</PointData>
<CellData/>
<Points>
 <DataArray type="Float64" Name="Points" NumberOfComponents="3" format="ascii">1784.27 1168 0 1131.33 545.445 0 865.406 580.825 0 1409.53 683.322 0 1674.98 970.462 0 1241.68 486.477 0 1923.65 1496.56 0 821.237 581.57 0 1826.83 1246.06 0 1929.09 1516.79 0 789.767 582.58 0 1589.75 853.221 0 1604.24 869.147 0 1941.4 1616.33 0 609.541 549.257 0 581.338 540.789 0 1941.51 1636.89 0 552.523 540.661 0 496.725 575.368 0 1523.17 787.085 0 1325.73 407.757 0 1941.62 1657.31 0 989.44 587.631 0 473.683 594.689 0 414.79 626.584 0 366.758 647.167 0 1300.77 448.69 0 1943.83 1677.26 0 1327.26 419.295 0 282.811 702.58 0 1949.79 1715.38 0 1975.79 1774.39 0 1314.51 534.893 0 1320.55 402.333 0 1355.18 636.291 0 1231.54 522.661 0 1280.95 544.169 0 1315.37 396.909 0 1058.06 571.168 0 922.866 582.881 0 1690.72 989.187 0 1887.71 1398.39 0 893.839 580.848 0</DataArray>
</Points>
<Verts>
 <DataArray type="Int64" Name="connectivity" format="ascii">0 1 2 3 4 5 6 7 8 9 10 11 12 13 14 15 16 17 18 19 20 21 22 23 24 25 26 27 28 29 30 31 32 33 34 35 36 37 38 39 40 41 42</DataArray>
 <DataArray type="Int64" Name="offsets" format="ascii">43</DataArray>
</Verts>
<Lines>
 <DataArray type="Int64" Name="connectivity" format="ascii"/>
 <DataArray type="Int64" Name="offsets" format="ascii"/>
</Lines>
<Stripes>
 <DataArray type="Int64" Name="connectivity" format="ascii"/>
 <DataArray type="Int64" Name="offsets" format="ascii"/>
</Stripes>
<Polys>
 <DataArray type="Int64" Name="connectivity" format="ascii"/>
 <DataArray type="Int64" Name="offsets" format="ascii"/>
</Polys>
</Piece>
</PolyData>
</VTKFile>