<?xml version="1.0" encoding="UTF-8" ?>
<VTKFile type="PolyData" version="0.1" order="LittleEndian">
<PolyData>
 <Piece NumberOfPoints="28" NumberOfVerts="1" NumberOfLines="0" NumberOfStrips="0" NumberOfPolys="0">
<PointData>
 <DataArray type="Float64" Name="speed" format="ascii">14.1176 20.7968 11.4112 19.7907 22.7631 8.24398 0 12.429 11.7527 20.557 5.33391 18.0163 13.1079 13.3286 13.7833 11.8343 7.30815 8.02088 5.44151 0 2.37875 23.5531 6.86328 17.8171 5.4497 11.2434 19.5748 11.5972</DataArray>
</PointData>
<CellData/>
<Points>
 <DataArray type="Float64" Name="Points" NumberOfComponents="3" format="ascii">1966.76 1755.01 0 300.897 685.697 0 1404.73 528.909 0 171.929 816.649 0 1619.67 175.233 0 1257.2 579.168 0 1216.34 615.776 0 1443.88 531.257 0 1981.29 1971.25 0 79.141 920.948 0 1210.04 611.788 0 1720.97 75.5764 0 1991.51 1805.67 0 1957.32 2013.95 0 36.1131 974.842 0 1208.72 566.59 0 1233.19 600.655 0 1933.41 2049.78 0 8.23341 1009.76 0 1.932 1017.65 0 1923.48 2064.75 0 1444.64 317.606 0 1370.41 459.235 0 217.331 765.992 0 1277.96 589.741 0 2022.43 1887.69 0 194.131 791.878 0 1383.48 526.28 0</DataArray>
</Points>
<Verts>
 <DataArray type="Int64" Name="connectivity" format="ascii">0 1 2 3 4 5 6 7 8 9 10 11 12 13 14 15 16 17 18 19 20 21 22 23 24 25 26 27</DataArray>
 <DataArray type="Int64" Name="offsets" format="ascii">28</DataArray>
</Verts>
<Lines>
 <DataArray type="Int64" Name="connectivity" format="ascii"/>
 <DataArray type="Int64" Name="offsets" format="ascii"/>
</Lines>
<Stripes>
 <DataArray type="Int64" Name="connectivity" format="ascii"/>
 <DataArray type="Int64" Name="offsets" format="ascii"/>
</Stripes>
<Polys>
 <DataArray type="Int64" Name="connectivity" format="ascii"/>
 <DataArray type="Int64" Name="offsets" format="ascii"/>
</Polys>
</Piece>
</PolyData>
</VTKFile>