<?xml version="1.0" encoding="UTF-8" ?>
<VTKFile type="PolyData" version="0.1" order="LittleEndian">
<PolyData>
 <Piece NumberOfPoints="25" NumberOfVerts="1" NumberOfLines="0" NumberOfStrips="0" NumberOfPolys="0">
<PointData>
 <DataArray type="Float64" Name="speed" format="ascii">14.157 12.9677 13.2127 11.0569 11.7504 12.3843 13.9363 11.9071 12.0762 10.4706 11.2305 19.7699 11.8502 12.9103 9.44701 13.5011 21.6156 12.636 10.6604 11.5961 11.6354 10.0968 15.0786 13.5325 10.4052</DataArray>
</PointData>
<CellData/>
<Points>
 <DataArray type="Float64" Name="Points" NumberOfComponents="3" format="ascii">1444.01 470.46 0 1857.13 1301.07 0 1808.73 1207.9 0 1982.78 1781.81 0 1340.91 630.179 0 1357.31 642.411 0 1779.29 1147.54 0 2003.77 1819.95 0 2014.77 1838.38 0 1485.11 755.463 0 1664.87 955.409 0 328.808 669.864 0 1499.42 769.576 0 1993.15 1802.17 0 1515.4 784.282 0 1614.18 880.071 0 482.919 591.126 0 1876.66 1359.57 0 1529.93 797.191 0 1532.99 795.543 0 1545.78 809.842 0 1560.15 825.442 0 1938.17 1538.25 0 1954.08 1720.22 0 1253.78 568.275 0</DataArray>
</Points>
<Verts>
 <DataArray type="Int64" Name="connectivity" format="ascii">0 1 2 3 4 5 6 7 8 9 10 11 12 13 14 15 16 17 18 19 20 21 22 23 24</DataArray>
 <DataArray type="Int64" Name="offsets" format="ascii">25</DataArray>
</Verts>
<Lines>
 <DataArray type="Int64" Name="connectivity" format="ascii"/>
 <DataArray type="Int64" Name="offsets" format="ascii"/>
</Lines>
<Stripes>
 <DataArray type="Int64" Name="connectivity" format="ascii"/>
 <DataArray type="Int64" Name="offsets" format="ascii"/>
</Stripes>
<Polys>
 <DataArray type="Int64" Name="connectivity" format="ascii"/>
 <DataArray type="Int64" Name="offsets" format="ascii"/>
</Polys>
</Piece>
</PolyData>
</VTKFile>