<?xml version="1.0" encoding="UTF-8" ?>
<VTKFile type="PolyData" version="0.1" order="LittleEndian">
<PolyData>
 <Piece NumberOfPoints="25" NumberOfVerts="1" NumberOfLines="0" NumberOfStrips="0" NumberOfPolys="0">
<PointData>
 <DataArray type="Float64" Name="speed" format="ascii">14.6389 13.0258 13.5032 10.7727 12.0729 10.4421 13.6003 11.2582 11.7724 10.7593 11.5584 20.3372 10.7648 11.0848 10.6541 12.8854 21.7688 12.281 11.1866 12.1031 10.5892 11.4947 14.1532 13.8009 7.5822</DataArray>
</PointData>
<CellData/>
<Points>
 <DataArray type="Float64" Name="Points" NumberOfComponents="3" format="ascii">1541.38 483.705 0 1884.89 1383.56 0 1854.25 1292.43 0 2023.23 1855.36 0 1272.8 589.804 0 1289.84 603.942 0 1822.23 1231.55 0 2022.68 1895.71 0 2013.74 1914.79 0 1429.31 703.912 0 1715.07 1018.37 0 225.645 761.51 0 1444.44 717.063 0 2026.62 1875.74 0 1459.75 730.379 0 1664.89 955.442 0 346.707 659.202 0 1909.94 1442.57 0 1474.71 745.084 0 1592.22 855.931 0 1489.25 759.6 0 1503.94 773.739 0 1944.71 1637.65 0 1995.36 1805.86 0 1237.62 513.182 0</DataArray>
</Points>
<Verts>
 <DataArray type="Int64" Name="connectivity" format="ascii">0 1 2 3 4 5 6 7 8 9 10 11 12 13 14 15 16 17 18 19 20 21 22 23 24</DataArray>
 <DataArray type="Int64" Name="offsets" format="ascii">25</DataArray>
</Verts>
<Lines>
 <DataArray type="Int64" Name="connectivity" format="ascii"/>
 <DataArray type="Int64" Name="offsets" format="ascii"/>
</Lines>
<Stripes>
 <DataArray type="Int64" Name="connectivity" format="ascii"/>
 <DataArray type="Int64" Name="offsets" format="ascii"/>
</Stripes>
<Polys>
 <DataArray type="Int64" Name="connectivity" format="ascii"/>
 <DataArray type="Int64" Name="offsets" format="ascii"/>
</Polys>
</Piece>
</PolyData>
</VTKFile>