<?xml version="1.0" encoding="UTF-8" ?>
<VTKFile type="PolyData" version="0.1" order="LittleEndian">
<PolyData>
 <Piece NumberOfPoints="30" NumberOfVerts="1" NumberOfLines="0" NumberOfStrips="0" NumberOfPolys="0">
<PointData>
 <DataArray type="Float64" Name="speed" format="ascii">2.34357 12.7714 13.5098 13.5634 14.3072 11.1992 4.23299 11.5416 13.3647 11.6787 11.8042 11.3282 12.12 20.1065 11.9312 11.9285 10.3278 16.0077 13.6516 22.0336 12.5709 10.4369 11.2163 10.9283 10.5403 15.034 14.2282 17.6876 14.1369 11.3537</DataArray>
</PointData>
<CellData/>
<Points>
 <DataArray type="Float64" Name="Points" NumberOfComponents="3" format="ascii">1272.54 587.065 0 1710.53 1012.76 0 1632.25 903.325 0 1908.02 1438.05 0 2000.71 1814.82 0 1565.2 830.987 0 1279.34 595.193 0 1579.07 846.234 0 1593.65 857.502 0 1935.91 1529.85 0 1941.45 1550.47 0 1667.09 965.175 0 1469.9 735.772 0 800.046 585.131 0 1679.89 981.28 0 1930.29 1508.93 0 1693.46 997.424 0 1474.71 468.764 0 1363.51 643.582 0 1033.85 578.806 0 1741.25 1058.39 0 1705.95 1012.29 0 1292.24 601.772 0 1717.94 1027.88 0 1730.28 1045.1 0 1798.64 1190.22 0 1880.26 1370.34 0 37.2276 978.569 0 2013 1835.4 0 1484.85 755.205 0</DataArray>
</Points>
<Verts>
 <DataArray type="Int64" Name="connectivity" format="ascii">0 1 2 3 4 5 6 7 8 9 10 11 12 13 14 15 16 17 18 19 20 21 22 23 24 25 26 27 28 29</DataArray>
 <DataArray type="Int64" Name="offsets" format="ascii">30</DataArray>
</Verts>
<Lines>
 <DataArray type="Int64" Name="connectivity" format="ascii"/>
 <DataArray type="Int64" Name="offsets" format="ascii"/>
</Lines>
<Stripes>
 <DataArray type="Int64" Name="connectivity" format="ascii"/>
 <DataArray type="Int64" Name="offsets" format="ascii"/>
</Stripes>
<Polys>
 <DataArray type="Int64" Name="connectivity" format="ascii"/>
 <DataArray type="Int64" Name="offsets" format="ascii"/>
</Polys>
</Piece>
</PolyData>
</VTKFile>