<?xml version="1.0" encoding="UTF-8" ?>
<VTKFile type="PolyData" version="0.1" order="LittleEndian">
<PolyData>
 <Piece NumberOfPoints="46" NumberOfVerts="1" NumberOfLines="0" NumberOfStrips="0" NumberOfPolys="0">
<PointData>
 <DataArray type="Float64" Name="speed" format="ascii">14.5422 19.9548 18.3291 11.078 13.0313 6.12651 4.06137 11.4901 20.5841 3.39741 12.8285 12.4084 20.601 12.3043 11.939 11.1926 18.4388 19.4955 10.6551 19.272 20.2988 14.5619 0 12.4114 6.88504 22.186 21.7197 21.6638 20.964 13.2201 23.3286 19.1998 13.6593 12.5451 14.6434 0.186189 10.4193 7.45599 13.5292 11.7351 11.2148 7.55316 17.6643 13.8485 12.0422 17.7192</DataArray>
</PointData>
<CellData/>
<Points>
 <DataArray type="Float64" Name="Points" NumberOfComponents="3" format="ascii">1864.02 1331.78 0 876.451 580.638 0 636.818 557.985 0 1265.2 580.5 0 1567.24 828.487 0 1322.04 408.521 0 1255.47 562.916 0 1941.55 1644.67 0 564.18 535.829 0 1236.12 514.532 0 1891.26 1406.74 0 1941.87 1664.68 0 530.807 552.501 0 1480.9 746.748 0 1495.75 761.57 0 1965.62 1752.55 0 394.957 635.217 0 362.545 648.952 0 1974.18 1770.93 0 334.977 662.467 0 276.676 708.307 0 1383.34 660.94 0 1325.73 407.757 0 1982.72 1789.25 0 1214.73 530.173 0 248.809 734.321 0 195.131 790.762 0 154.903 835.647 0 1508.62 270.978 0 1995.25 1811.93 0 1547.4 237.064 0 109.898 885.861 0 2023.49 1874.83 0 2005.97 1923.82 0 1396.45 466.662 0 1320.5 402.285 0 1233.37 600.452 0 1216.24 612.41 0 1435.25 531.069 0 1428.97 527.418 0 1300.78 356.086 0 1247.06 509.003 0 690.926 575.299 0 1583.61 846.475 0 1935.96 1542.37 0 664.092 566.712 0</DataArray>
</Points>
<Verts>
 <DataArray type="Int64" Name="connectivity" format="ascii">0 1 2 3 4 5 6 7 8 9 10 11 12 13 14 15 16 17 18 19 20 21 22 23 24 25 26 27 28 29 30 31 32 33 34 35 36 37 38 39 40 41 42 43 44 45</DataArray>
 <DataArray type="Int64" Name="offsets" format="ascii">46</DataArray>
</Verts>
<Lines>
 <DataArray type="Int64" Name="connectivity" format="ascii"/>
 <DataArray type="Int64" Name="offsets" format="ascii"/>
</Lines>
<Stripes>
 <DataArray type="Int64" Name="connectivity" format="ascii"/>
 <DataArray type="Int64" Name="offsets" format="ascii"/>
</Stripes>
<Polys>
 <DataArray type="Int64" Name="connectivity" format="ascii"/>
 <DataArray type="Int64" Name="offsets" format="ascii"/>
</Polys>
</Piece>
</PolyData>
</VTKFile>