<?xml version="1.0" encoding="UTF-8" ?>
<VTKFile type="PolyData" version="0.1" order="LittleEndian">
<PolyData>
 <Piece NumberOfPoints="28" NumberOfVerts="1" NumberOfLines="0" NumberOfStrips="0" NumberOfPolys="0">
<PointData>
 <DataArray type="Float64" Name="speed" format="ascii">8.49891 12.8515 13.3388 14.3065 13.7518 11.8687 7.2474 11.7926 12.9337 10.2988 11.0974 10.61 11.0241 19.1359 10.6638 11.6377 10.4199 13.3112 21.7657 12.479 9.93285 12.0021 8.88505 9.89495 14.7029 13.7839 14.0378 11.7005</DataArray>
</PointData>
<CellData/>
<Points>
 <DataArray type="Float64" Name="Points" NumberOfComponents="3" format="ascii">1303.59 489.331 0 1787.91 1168.46 0 1741.42 1058.78 0 1944.67 1629.2 0 1975.27 1988.52 0 1447.2 719.469 0 1295.11 541.085 0 1463.31 733.708 0 1705.37 1006.61 0 1949.47 1692.61 0 1952.7 1713.28 0 1578.17 845.242 0 1583.19 846.008 0 534.875 553.696 0 1592.07 860.522 0 1946.42 1673.15 0 1605.26 875.012 0 1501.71 767.342 0 723.849 586.451 0 1814.92 1218.74 0 1618.84 889.936 0 1427.85 698.402 0 1630.19 906.026 0 1640.36 921.657 0 1881.69 1374.63 0 1941.94 1555.42 0 1963.09 2010.2 0 1361.95 646.468 0</DataArray>
</Points>
<Verts>
 <DataArray type="Int64" Name="connectivity" format="ascii">0 1 2 3 4 5 6 7 8 9 10 11 12 13 14 15 16 17 18 19 20 21 22 23 24 25 26 27</DataArray>
 <DataArray type="Int64" Name="offsets" format="ascii">28</DataArray>
</Verts>
<Lines>
 <DataArray type="Int64" Name="connectivity" format="ascii"/>
 <DataArray type="Int64" Name="offsets" format="ascii"/>
</Lines>
<Stripes>
 <DataArray type="Int64" Name="connectivity" format="ascii"/>
 <DataArray type="Int64" Name="offsets" format="ascii"/>
</Stripes>
<Polys>
 <DataArray type="Int64" Name="connectivity" format="ascii"/>
 <DataArray type="Int64" Name="offsets" format="ascii"/>
</Polys>
</Piece>
</PolyData>
</VTKFile>